
     Program PWSCF v.6.6 starts on 20May2022 at 16:24:17 

     This program is part of the open-source Quantum ESPRESSO suite
     for quantum simulation of materials; please cite
         "P. Giannozzi et al., J. Phys.:Condens. Matter 21 395502 (2009);
         "P. Giannozzi et al., J. Phys.:Condens. Matter 29 465901 (2017);
          URL http://www.quantum-espresso.org", 
     in publications or presentations arising from this work. More details at
     http://www.quantum-espresso.org/quote

     Parallel version (MPI), running on    40 processors

     MPI processes distributed on     1 nodes
     R & G space division:  proc/nbgrp/npool/nimage =      40
     Fft bands division:     nmany     =       1
     Reading input from nscf.in

     Current dimensions of program PWSCF are:
     Max number of different atomic species (ntypx) = 10
     Max number of k-points (npk) =  40000
     Max angular momentum in pseudopotentials (lmaxx) =  3

     Atomic positions and unit cell read from directory:
     ./out/1T-NbSe2.save/
     Atomic positions from file used, from input discarded
 
     file Nb.pbe-spn-kjpaw_psl.0.3.0.UPF: wavefunction(s)  4S 4P renormalized

     Subspace diagonalization in iterative solution of the eigenvalue problem:
     a serial algorithm will be used

     Message from routine setup:
     using ibrav=0 with symmetry is DISCOURAGED, use correct ibrav instead
 
     Parallelization info
     --------------------
     sticks:   dense  smooth     PW     G-vecs:    dense   smooth      PW
     Min          23      11      4                 1149      401     102
     Max          24      12      5                 1164      412     113
     Sum         955     475    199                46375    16329    4359
 


     bravais-lattice index     =            0
     lattice parameter (alat)  =       6.5904  a.u.
     unit-cell volume          =     478.9883 (a.u.)^3
     number of atoms/cell      =            3
     number of atomic types    =            2
     number of electrons       =        25.00
     number of Kohn-Sham states=           17
     kinetic-energy cutoff     =      40.0000  Ry
     charge density cutoff     =     320.0000  Ry
     Exchange-correlation= SLA  PW   PBE  PBE
                           (   1   4   3   4   0   0   0)

     celldm(1)=   6.590441  celldm(2)=   0.000000  celldm(3)=   0.000000
     celldm(4)=   0.000000  celldm(5)=   0.000000  celldm(6)=   0.000000

     crystal axes: (cart. coord. in units of alat)
               a(1) = (   1.000000   0.000000   0.000000 )  
               a(2) = (  -0.500000   0.866025   0.000000 )  
               a(3) = (   0.000000   0.000000   1.932195 )  

     reciprocal axes: (cart. coord. in units 2 pi/alat)
               b(1) = (  1.000000  0.577350  0.000000 )  
               b(2) = (  0.000000  1.154701  0.000000 )  
               b(3) = (  0.000000  0.000000  0.517546 )  


     PseudoPot. # 1 for Nb read from file:
     ./pseudo/Nb.pbe-spn-kjpaw_psl.0.3.0.UPF
     MD5 check sum: 411d72ad547312f8017e2943ceca08cc
     Pseudo is Projector augmented-wave + core cor, Zval = 13.0
     Generated using "atomic" code by A. Dal Corso v.5.0.99 svn rev. 10869
     Shape of augmentation charge: PSQ
     Using radial grid of 1227 points,  6 beta functions with: 
                l(1) =   0
                l(2) =   0
                l(3) =   1
                l(4) =   1
                l(5) =   2
                l(6) =   2
     Q(r) pseudized with 0 coefficients 


     PseudoPot. # 2 for Se read from file:
     ./pseudo/Se_pbe_v1.uspp.F.UPF
     MD5 check sum: 1b3568f3a8ae88f9a2a0ad0698632c85
     Pseudo is Ultrasoft + core correction, Zval =  6.0
     Generated by new atomic code, or converted to UPF format
     Using radial grid of  877 points,  6 beta functions with: 
                l(1) =   0
                l(2) =   0
                l(3) =   1
                l(4) =   1
                l(5) =   2
                l(6) =   2
     Q(r) pseudized with  8 coefficients,  rinner =    1.300   1.300   1.300
                                                       1.300   1.300

     atomic species   valence    mass     pseudopotential
        Nb            13.00    92.90638     Nb( 1.00)
        Se             6.00    78.96000     Se( 1.00)

     12 Sym. Ops., with inversion, found


                                    s                        frac. trans.

      isym =  1     identity                                     

 cryst.   s( 1) = (     1          0          0      )
                  (     0          1          0      )
                  (     0          0          1      )

 cart.    s( 1) = (  1.0000000  0.0000000  0.0000000 )
                  (  0.0000000  1.0000000  0.0000000 )
                  (  0.0000000  0.0000000  1.0000000 )


      isym =  2     180 deg rotation - cart. axis [1,0,0]        

 cryst.   s( 2) = (     1          0          0      )
                  (    -1         -1          0      )
                  (     0          0         -1      )

 cart.    s( 2) = (  1.0000000  0.0000000  0.0000000 )
                  (  0.0000000 -1.0000000  0.0000000 )
                  (  0.0000000  0.0000000 -1.0000000 )


      isym =  3     120 deg rotation - cryst. axis [0,0,1]       

 cryst.   s( 3) = (     0          1          0      )
                  (    -1         -1          0      )
                  (     0          0          1      )

 cart.    s( 3) = ( -0.5000000 -0.8660254  0.0000000 )
                  (  0.8660254 -0.5000000  0.0000000 )
                  (  0.0000000  0.0000000  1.0000000 )


      isym =  4     120 deg rotation - cryst. axis [0,0,-1]      

 cryst.   s( 4) = (    -1         -1          0      )
                  (     1          0          0      )
                  (     0          0          1      )

 cart.    s( 4) = ( -0.5000000  0.8660254  0.0000000 )
                  ( -0.8660254 -0.5000000  0.0000000 )
                  (  0.0000000  0.0000000  1.0000000 )


      isym =  5     180 deg rotation - cryst. axis [0,1,0]       

 cryst.   s( 5) = (    -1         -1          0      )
                  (     0          1          0      )
                  (     0          0         -1      )

 cart.    s( 5) = ( -0.5000000 -0.8660254  0.0000000 )
                  ( -0.8660254  0.5000000  0.0000000 )
                  (  0.0000000  0.0000000 -1.0000000 )


      isym =  6     180 deg rotation - cryst. axis [1,1,0]       

 cryst.   s( 6) = (     0          1          0      )
                  (     1          0          0      )
                  (     0          0         -1      )

 cart.    s( 6) = ( -0.5000000  0.8660254  0.0000000 )
                  (  0.8660254  0.5000000  0.0000000 )
                  (  0.0000000  0.0000000 -1.0000000 )


      isym =  7     inversion                                    

 cryst.   s( 7) = (    -1          0          0      )
                  (     0         -1          0      )
                  (     0          0         -1      )

 cart.    s( 7) = ( -1.0000000  0.0000000  0.0000000 )
                  (  0.0000000 -1.0000000  0.0000000 )
                  (  0.0000000  0.0000000 -1.0000000 )


      isym =  8     inv. 180 deg rotation - cart. axis [1,0,0]   

 cryst.   s( 8) = (    -1          0          0      )
                  (     1          1          0      )
                  (     0          0          1      )

 cart.    s( 8) = ( -1.0000000  0.0000000  0.0000000 )
                  (  0.0000000  1.0000000  0.0000000 )
                  (  0.0000000  0.0000000  1.0000000 )


      isym =  9     inv. 120 deg rotation - cryst. axis [0,0,1]  

 cryst.   s( 9) = (     0         -1          0      )
                  (     1          1          0      )
                  (     0          0         -1      )

 cart.    s( 9) = (  0.5000000  0.8660254  0.0000000 )
                  ( -0.8660254  0.5000000  0.0000000 )
                  (  0.0000000  0.0000000 -1.0000000 )


      isym = 10     inv. 120 deg rotation - cryst. axis [0,0,-1] 

 cryst.   s(10) = (     1          1          0      )
                  (    -1          0          0      )
                  (     0          0         -1      )

 cart.    s(10) = (  0.5000000 -0.8660254  0.0000000 )
                  (  0.8660254  0.5000000  0.0000000 )
                  (  0.0000000  0.0000000 -1.0000000 )


      isym = 11     inv. 180 deg rotation - cryst. axis [0,1,0]  

 cryst.   s(11) = (     1          1          0      )
                  (     0         -1          0      )
                  (     0          0          1      )

 cart.    s(11) = (  0.5000000  0.8660254  0.0000000 )
                  (  0.8660254 -0.5000000  0.0000000 )
                  (  0.0000000  0.0000000  1.0000000 )


      isym = 12     inv. 180 deg rotation - cryst. axis [1,1,0]  

 cryst.   s(12) = (     0         -1          0      )
                  (    -1          0          0      )
                  (     0          0          1      )

 cart.    s(12) = (  0.5000000 -0.8660254  0.0000000 )
                  ( -0.8660254 -0.5000000  0.0000000 )
                  (  0.0000000  0.0000000  1.0000000 )


   Cartesian axes

     site n.     atom                  positions (alat units)
         1           Nb  tau(   1) = (   0.0000000   0.0000000   0.0000000  )
         2           Se  tau(   2) = (   0.5000000   0.2886751   1.4500328  )
         3           Se  tau(   3) = (  -0.0000000   0.5773503   0.4821618  )

   Crystallographic axes

     site n.     atom                  positions (cryst. coord.)
         1           Nb  tau(   1) = (  0.0000000  0.0000000  0.0000000  )
         2           Se  tau(   2) = (  0.6666667  0.3333333  0.7504590  )
         3           Se  tau(   3) = (  0.3333333  0.6666667  0.2495410  )

     number of k points=   256  Gaussian smearing, width (Ry)=  0.0100
                       cart. coord. in units 2pi/alat
        k(    1) = (   0.0000000   0.0000000   0.0000000), wk =   0.0078125
        k(    2) = (   0.0000000   0.0721688   0.0000000), wk =   0.0078125
        k(    3) = (   0.0000000   0.1443376   0.0000000), wk =   0.0078125
        k(    4) = (   0.0000000   0.2165064   0.0000000), wk =   0.0078125
        k(    5) = (   0.0000000   0.2886751   0.0000000), wk =   0.0078125
        k(    6) = (   0.0000000   0.3608439   0.0000000), wk =   0.0078125
        k(    7) = (   0.0000000   0.4330127   0.0000000), wk =   0.0078125
        k(    8) = (   0.0000000   0.5051815   0.0000000), wk =   0.0078125
        k(    9) = (   0.0000000   0.5773503   0.0000000), wk =   0.0078125
        k(   10) = (   0.0000000   0.6495191   0.0000000), wk =   0.0078125
        k(   11) = (   0.0000000   0.7216878   0.0000000), wk =   0.0078125
        k(   12) = (   0.0000000   0.7938566   0.0000000), wk =   0.0078125
        k(   13) = (   0.0000000   0.8660254   0.0000000), wk =   0.0078125
        k(   14) = (   0.0000000   0.9381942   0.0000000), wk =   0.0078125
        k(   15) = (   0.0000000   1.0103630   0.0000000), wk =   0.0078125
        k(   16) = (   0.0000000   1.0825318   0.0000000), wk =   0.0078125
        k(   17) = (   0.0625000   0.0360844   0.0000000), wk =   0.0078125
        k(   18) = (   0.0625000   0.1082532   0.0000000), wk =   0.0078125
        k(   19) = (   0.0625000   0.1804220   0.0000000), wk =   0.0078125
        k(   20) = (   0.0625000   0.2525907   0.0000000), wk =   0.0078125
        k(   21) = (   0.0625000   0.3247595   0.0000000), wk =   0.0078125
        k(   22) = (   0.0625000   0.3969283   0.0000000), wk =   0.0078125
        k(   23) = (   0.0625000   0.4690971   0.0000000), wk =   0.0078125
        k(   24) = (   0.0625000   0.5412659   0.0000000), wk =   0.0078125
        k(   25) = (   0.0625000   0.6134347   0.0000000), wk =   0.0078125
        k(   26) = (   0.0625000   0.6856034   0.0000000), wk =   0.0078125
        k(   27) = (   0.0625000   0.7577722   0.0000000), wk =   0.0078125
        k(   28) = (   0.0625000   0.8299410   0.0000000), wk =   0.0078125
        k(   29) = (   0.0625000   0.9021098   0.0000000), wk =   0.0078125
        k(   30) = (   0.0625000   0.9742786   0.0000000), wk =   0.0078125
        k(   31) = (   0.0625000   1.0464474   0.0000000), wk =   0.0078125
        k(   32) = (   0.0625000   1.1186161   0.0000000), wk =   0.0078125
        k(   33) = (   0.1250000   0.0721688   0.0000000), wk =   0.0078125
        k(   34) = (   0.1250000   0.1443376   0.0000000), wk =   0.0078125
        k(   35) = (   0.1250000   0.2165064   0.0000000), wk =   0.0078125
        k(   36) = (   0.1250000   0.2886751   0.0000000), wk =   0.0078125
        k(   37) = (   0.1250000   0.3608439   0.0000000), wk =   0.0078125
        k(   38) = (   0.1250000   0.4330127   0.0000000), wk =   0.0078125
        k(   39) = (   0.1250000   0.5051815   0.0000000), wk =   0.0078125
        k(   40) = (   0.1250000   0.5773503   0.0000000), wk =   0.0078125
        k(   41) = (   0.1250000   0.6495191   0.0000000), wk =   0.0078125
        k(   42) = (   0.1250000   0.7216878   0.0000000), wk =   0.0078125
        k(   43) = (   0.1250000   0.7938566   0.0000000), wk =   0.0078125
        k(   44) = (   0.1250000   0.8660254   0.0000000), wk =   0.0078125
        k(   45) = (   0.1250000   0.9381942   0.0000000), wk =   0.0078125
        k(   46) = (   0.1250000   1.0103630   0.0000000), wk =   0.0078125
        k(   47) = (   0.1250000   1.0825318   0.0000000), wk =   0.0078125
        k(   48) = (   0.1250000   1.1547005   0.0000000), wk =   0.0078125
        k(   49) = (   0.1875000   0.1082532   0.0000000), wk =   0.0078125
        k(   50) = (   0.1875000   0.1804220   0.0000000), wk =   0.0078125
        k(   51) = (   0.1875000   0.2525907   0.0000000), wk =   0.0078125
        k(   52) = (   0.1875000   0.3247595   0.0000000), wk =   0.0078125
        k(   53) = (   0.1875000   0.3969283   0.0000000), wk =   0.0078125
        k(   54) = (   0.1875000   0.4690971   0.0000000), wk =   0.0078125
        k(   55) = (   0.1875000   0.5412659   0.0000000), wk =   0.0078125
        k(   56) = (   0.1875000   0.6134347   0.0000000), wk =   0.0078125
        k(   57) = (   0.1875000   0.6856034   0.0000000), wk =   0.0078125
        k(   58) = (   0.1875000   0.7577722   0.0000000), wk =   0.0078125
        k(   59) = (   0.1875000   0.8299410   0.0000000), wk =   0.0078125
        k(   60) = (   0.1875000   0.9021098   0.0000000), wk =   0.0078125
        k(   61) = (   0.1875000   0.9742786   0.0000000), wk =   0.0078125
        k(   62) = (   0.1875000   1.0464474   0.0000000), wk =   0.0078125
        k(   63) = (   0.1875000   1.1186161   0.0000000), wk =   0.0078125
        k(   64) = (   0.1875000   1.1907849   0.0000000), wk =   0.0078125
        k(   65) = (   0.2500000   0.1443376   0.0000000), wk =   0.0078125
        k(   66) = (   0.2500000   0.2165064   0.0000000), wk =   0.0078125
        k(   67) = (   0.2500000   0.2886751   0.0000000), wk =   0.0078125
        k(   68) = (   0.2500000   0.3608439   0.0000000), wk =   0.0078125
        k(   69) = (   0.2500000   0.4330127   0.0000000), wk =   0.0078125
        k(   70) = (   0.2500000   0.5051815   0.0000000), wk =   0.0078125
        k(   71) = (   0.2500000   0.5773503   0.0000000), wk =   0.0078125
        k(   72) = (   0.2500000   0.6495191   0.0000000), wk =   0.0078125
        k(   73) = (   0.2500000   0.7216878   0.0000000), wk =   0.0078125
        k(   74) = (   0.2500000   0.7938566   0.0000000), wk =   0.0078125
        k(   75) = (   0.2500000   0.8660254   0.0000000), wk =   0.0078125
        k(   76) = (   0.2500000   0.9381942   0.0000000), wk =   0.0078125
        k(   77) = (   0.2500000   1.0103630   0.0000000), wk =   0.0078125
        k(   78) = (   0.2500000   1.0825318   0.0000000), wk =   0.0078125
        k(   79) = (   0.2500000   1.1547005   0.0000000), wk =   0.0078125
        k(   80) = (   0.2500000   1.2268693   0.0000000), wk =   0.0078125
        k(   81) = (   0.3125000   0.1804220   0.0000000), wk =   0.0078125
        k(   82) = (   0.3125000   0.2525907   0.0000000), wk =   0.0078125
        k(   83) = (   0.3125000   0.3247595   0.0000000), wk =   0.0078125
        k(   84) = (   0.3125000   0.3969283   0.0000000), wk =   0.0078125
        k(   85) = (   0.3125000   0.4690971   0.0000000), wk =   0.0078125
        k(   86) = (   0.3125000   0.5412659   0.0000000), wk =   0.0078125
        k(   87) = (   0.3125000   0.6134347   0.0000000), wk =   0.0078125
        k(   88) = (   0.3125000   0.6856034   0.0000000), wk =   0.0078125
        k(   89) = (   0.3125000   0.7577722   0.0000000), wk =   0.0078125
        k(   90) = (   0.3125000   0.8299410   0.0000000), wk =   0.0078125
        k(   91) = (   0.3125000   0.9021098   0.0000000), wk =   0.0078125
        k(   92) = (   0.3125000   0.9742786   0.0000000), wk =   0.0078125
        k(   93) = (   0.3125000   1.0464474   0.0000000), wk =   0.0078125
        k(   94) = (   0.3125000   1.1186161   0.0000000), wk =   0.0078125
        k(   95) = (   0.3125000   1.1907849   0.0000000), wk =   0.0078125
        k(   96) = (   0.3125000   1.2629537   0.0000000), wk =   0.0078125
        k(   97) = (   0.3750000   0.2165064   0.0000000), wk =   0.0078125
        k(   98) = (   0.3750000   0.2886751   0.0000000), wk =   0.0078125
        k(   99) = (   0.3750000   0.3608439   0.0000000), wk =   0.0078125
        k(  100) = (   0.3750000   0.4330127   0.0000000), wk =   0.0078125
        k(  101) = (   0.3750000   0.5051815   0.0000000), wk =   0.0078125
        k(  102) = (   0.3750000   0.5773503   0.0000000), wk =   0.0078125
        k(  103) = (   0.3750000   0.6495191   0.0000000), wk =   0.0078125
        k(  104) = (   0.3750000   0.7216878   0.0000000), wk =   0.0078125
        k(  105) = (   0.3750000   0.7938566   0.0000000), wk =   0.0078125
        k(  106) = (   0.3750000   0.8660254   0.0000000), wk =   0.0078125
        k(  107) = (   0.3750000   0.9381942   0.0000000), wk =   0.0078125
        k(  108) = (   0.3750000   1.0103630   0.0000000), wk =   0.0078125
        k(  109) = (   0.3750000   1.0825318   0.0000000), wk =   0.0078125
        k(  110) = (   0.3750000   1.1547005   0.0000000), wk =   0.0078125
        k(  111) = (   0.3750000   1.2268693   0.0000000), wk =   0.0078125
        k(  112) = (   0.3750000   1.2990381   0.0000000), wk =   0.0078125
        k(  113) = (   0.4375000   0.2525907   0.0000000), wk =   0.0078125
        k(  114) = (   0.4375000   0.3247595   0.0000000), wk =   0.0078125
        k(  115) = (   0.4375000   0.3969283   0.0000000), wk =   0.0078125
        k(  116) = (   0.4375000   0.4690971   0.0000000), wk =   0.0078125
        k(  117) = (   0.4375000   0.5412659   0.0000000), wk =   0.0078125
        k(  118) = (   0.4375000   0.6134347   0.0000000), wk =   0.0078125
        k(  119) = (   0.4375000   0.6856034   0.0000000), wk =   0.0078125
        k(  120) = (   0.4375000   0.7577722   0.0000000), wk =   0.0078125
        k(  121) = (   0.4375000   0.8299410   0.0000000), wk =   0.0078125
        k(  122) = (   0.4375000   0.9021098   0.0000000), wk =   0.0078125
        k(  123) = (   0.4375000   0.9742786   0.0000000), wk =   0.0078125
        k(  124) = (   0.4375000   1.0464474   0.0000000), wk =   0.0078125
        k(  125) = (   0.4375000   1.1186161   0.0000000), wk =   0.0078125
        k(  126) = (   0.4375000   1.1907849   0.0000000), wk =   0.0078125
        k(  127) = (   0.4375000   1.2629537   0.0000000), wk =   0.0078125
        k(  128) = (   0.4375000   1.3351225   0.0000000), wk =   0.0078125
        k(  129) = (   0.5000000   0.2886751   0.0000000), wk =   0.0078125
        k(  130) = (   0.5000000   0.3608439   0.0000000), wk =   0.0078125
        k(  131) = (   0.5000000   0.4330127   0.0000000), wk =   0.0078125
        k(  132) = (   0.5000000   0.5051815   0.0000000), wk =   0.0078125
        k(  133) = (   0.5000000   0.5773503   0.0000000), wk =   0.0078125
        k(  134) = (   0.5000000   0.6495191   0.0000000), wk =   0.0078125
        k(  135) = (   0.5000000   0.7216878   0.0000000), wk =   0.0078125
        k(  136) = (   0.5000000   0.7938566   0.0000000), wk =   0.0078125
        k(  137) = (   0.5000000   0.8660254   0.0000000), wk =   0.0078125
        k(  138) = (   0.5000000   0.9381942   0.0000000), wk =   0.0078125
        k(  139) = (   0.5000000   1.0103630   0.0000000), wk =   0.0078125
        k(  140) = (   0.5000000   1.0825318   0.0000000), wk =   0.0078125
        k(  141) = (   0.5000000   1.1547005   0.0000000), wk =   0.0078125
        k(  142) = (   0.5000000   1.2268693   0.0000000), wk =   0.0078125
        k(  143) = (   0.5000000   1.2990381   0.0000000), wk =   0.0078125
        k(  144) = (   0.5000000   1.3712069   0.0000000), wk =   0.0078125
        k(  145) = (   0.5625000   0.3247595   0.0000000), wk =   0.0078125
        k(  146) = (   0.5625000   0.3969283   0.0000000), wk =   0.0078125
        k(  147) = (   0.5625000   0.4690971   0.0000000), wk =   0.0078125
        k(  148) = (   0.5625000   0.5412659   0.0000000), wk =   0.0078125
        k(  149) = (   0.5625000   0.6134347   0.0000000), wk =   0.0078125
        k(  150) = (   0.5625000   0.6856034   0.0000000), wk =   0.0078125
        k(  151) = (   0.5625000   0.7577722   0.0000000), wk =   0.0078125
        k(  152) = (   0.5625000   0.8299410   0.0000000), wk =   0.0078125
        k(  153) = (   0.5625000   0.9021098   0.0000000), wk =   0.0078125
        k(  154) = (   0.5625000   0.9742786   0.0000000), wk =   0.0078125
        k(  155) = (   0.5625000   1.0464474   0.0000000), wk =   0.0078125
        k(  156) = (   0.5625000   1.1186161   0.0000000), wk =   0.0078125
        k(  157) = (   0.5625000   1.1907849   0.0000000), wk =   0.0078125
        k(  158) = (   0.5625000   1.2629537   0.0000000), wk =   0.0078125
        k(  159) = (   0.5625000   1.3351225   0.0000000), wk =   0.0078125
        k(  160) = (   0.5625000   1.4072913   0.0000000), wk =   0.0078125
        k(  161) = (   0.6250000   0.3608439   0.0000000), wk =   0.0078125
        k(  162) = (   0.6250000   0.4330127   0.0000000), wk =   0.0078125
        k(  163) = (   0.6250000   0.5051815   0.0000000), wk =   0.0078125
        k(  164) = (   0.6250000   0.5773503   0.0000000), wk =   0.0078125
        k(  165) = (   0.6250000   0.6495191   0.0000000), wk =   0.0078125
        k(  166) = (   0.6250000   0.7216878   0.0000000), wk =   0.0078125
        k(  167) = (   0.6250000   0.7938566   0.0000000), wk =   0.0078125
        k(  168) = (   0.6250000   0.8660254   0.0000000), wk =   0.0078125
        k(  169) = (   0.6250000   0.9381942   0.0000000), wk =   0.0078125
        k(  170) = (   0.6250000   1.0103630   0.0000000), wk =   0.0078125
        k(  171) = (   0.6250000   1.0825318   0.0000000), wk =   0.0078125
        k(  172) = (   0.6250000   1.1547005   0.0000000), wk =   0.0078125
        k(  173) = (   0.6250000   1.2268693   0.0000000), wk =   0.0078125
        k(  174) = (   0.6250000   1.2990381   0.0000000), wk =   0.0078125
        k(  175) = (   0.6250000   1.3712069   0.0000000), wk =   0.0078125
        k(  176) = (   0.6250000   1.4433757   0.0000000), wk =   0.0078125
        k(  177) = (   0.6875000   0.3969283   0.0000000), wk =   0.0078125
        k(  178) = (   0.6875000   0.4690971   0.0000000), wk =   0.0078125
        k(  179) = (   0.6875000   0.5412659   0.0000000), wk =   0.0078125
        k(  180) = (   0.6875000   0.6134347   0.0000000), wk =   0.0078125
        k(  181) = (   0.6875000   0.6856034   0.0000000), wk =   0.0078125
        k(  182) = (   0.6875000   0.7577722   0.0000000), wk =   0.0078125
        k(  183) = (   0.6875000   0.8299410   0.0000000), wk =   0.0078125
        k(  184) = (   0.6875000   0.9021098   0.0000000), wk =   0.0078125
        k(  185) = (   0.6875000   0.9742786   0.0000000), wk =   0.0078125
        k(  186) = (   0.6875000   1.0464474   0.0000000), wk =   0.0078125
        k(  187) = (   0.6875000   1.1186161   0.0000000), wk =   0.0078125
        k(  188) = (   0.6875000   1.1907849   0.0000000), wk =   0.0078125
        k(  189) = (   0.6875000   1.2629537   0.0000000), wk =   0.0078125
        k(  190) = (   0.6875000   1.3351225   0.0000000), wk =   0.0078125
        k(  191) = (   0.6875000   1.4072913   0.0000000), wk =   0.0078125
        k(  192) = (   0.6875000   1.4794601   0.0000000), wk =   0.0078125
        k(  193) = (   0.7500000   0.4330127   0.0000000), wk =   0.0078125
        k(  194) = (   0.7500000   0.5051815   0.0000000), wk =   0.0078125
        k(  195) = (   0.7500000   0.5773503   0.0000000), wk =   0.0078125
        k(  196) = (   0.7500000   0.6495191   0.0000000), wk =   0.0078125
        k(  197) = (   0.7500000   0.7216878   0.0000000), wk =   0.0078125
        k(  198) = (   0.7500000   0.7938566   0.0000000), wk =   0.0078125
        k(  199) = (   0.7500000   0.8660254   0.0000000), wk =   0.0078125
        k(  200) = (   0.7500000   0.9381942   0.0000000), wk =   0.0078125
        k(  201) = (   0.7500000   1.0103630   0.0000000), wk =   0.0078125
        k(  202) = (   0.7500000   1.0825318   0.0000000), wk =   0.0078125
        k(  203) = (   0.7500000   1.1547005   0.0000000), wk =   0.0078125
        k(  204) = (   0.7500000   1.2268693   0.0000000), wk =   0.0078125
        k(  205) = (   0.7500000   1.2990381   0.0000000), wk =   0.0078125
        k(  206) = (   0.7500000   1.3712069   0.0000000), wk =   0.0078125
        k(  207) = (   0.7500000   1.4433757   0.0000000), wk =   0.0078125
        k(  208) = (   0.7500000   1.5155445   0.0000000), wk =   0.0078125
        k(  209) = (   0.8125000   0.4690971   0.0000000), wk =   0.0078125
        k(  210) = (   0.8125000   0.5412659   0.0000000), wk =   0.0078125
        k(  211) = (   0.8125000   0.6134347   0.0000000), wk =   0.0078125
        k(  212) = (   0.8125000   0.6856034   0.0000000), wk =   0.0078125
        k(  213) = (   0.8125000   0.7577722   0.0000000), wk =   0.0078125
        k(  214) = (   0.8125000   0.8299410   0.0000000), wk =   0.0078125
        k(  215) = (   0.8125000   0.9021098   0.0000000), wk =   0.0078125
        k(  216) = (   0.8125000   0.9742786   0.0000000), wk =   0.0078125
        k(  217) = (   0.8125000   1.0464474   0.0000000), wk =   0.0078125
        k(  218) = (   0.8125000   1.1186161   0.0000000), wk =   0.0078125
        k(  219) = (   0.8125000   1.1907849   0.0000000), wk =   0.0078125
        k(  220) = (   0.8125000   1.2629537   0.0000000), wk =   0.0078125
        k(  221) = (   0.8125000   1.3351225   0.0000000), wk =   0.0078125
        k(  222) = (   0.8125000   1.4072913   0.0000000), wk =   0.0078125
        k(  223) = (   0.8125000   1.4794601   0.0000000), wk =   0.0078125
        k(  224) = (   0.8125000   1.5516288   0.0000000), wk =   0.0078125
        k(  225) = (   0.8750000   0.5051815   0.0000000), wk =   0.0078125
        k(  226) = (   0.8750000   0.5773503   0.0000000), wk =   0.0078125
        k(  227) = (   0.8750000   0.6495191   0.0000000), wk =   0.0078125
        k(  228) = (   0.8750000   0.7216878   0.0000000), wk =   0.0078125
        k(  229) = (   0.8750000   0.7938566   0.0000000), wk =   0.0078125
        k(  230) = (   0.8750000   0.8660254   0.0000000), wk =   0.0078125
        k(  231) = (   0.8750000   0.9381942   0.0000000), wk =   0.0078125
        k(  232) = (   0.8750000   1.0103630   0.0000000), wk =   0.0078125
        k(  233) = (   0.8750000   1.0825318   0.0000000), wk =   0.0078125
        k(  234) = (   0.8750000   1.1547005   0.0000000), wk =   0.0078125
        k(  235) = (   0.8750000   1.2268693   0.0000000), wk =   0.0078125
        k(  236) = (   0.8750000   1.2990381   0.0000000), wk =   0.0078125
        k(  237) = (   0.8750000   1.3712069   0.0000000), wk =   0.0078125
        k(  238) = (   0.8750000   1.4433757   0.0000000), wk =   0.0078125
        k(  239) = (   0.8750000   1.5155445   0.0000000), wk =   0.0078125
        k(  240) = (   0.8750000   1.5877132   0.0000000), wk =   0.0078125
        k(  241) = (   0.9375000   0.5412659   0.0000000), wk =   0.0078125
        k(  242) = (   0.9375000   0.6134347   0.0000000), wk =   0.0078125
        k(  243) = (   0.9375000   0.6856034   0.0000000), wk =   0.0078125
        k(  244) = (   0.9375000   0.7577722   0.0000000), wk =   0.0078125
        k(  245) = (   0.9375000   0.8299410   0.0000000), wk =   0.0078125
        k(  246) = (   0.9375000   0.9021098   0.0000000), wk =   0.0078125
        k(  247) = (   0.9375000   0.9742786   0.0000000), wk =   0.0078125
        k(  248) = (   0.9375000   1.0464474   0.0000000), wk =   0.0078125
        k(  249) = (   0.9375000   1.1186161   0.0000000), wk =   0.0078125
        k(  250) = (   0.9375000   1.1907849   0.0000000), wk =   0.0078125
        k(  251) = (   0.9375000   1.2629537   0.0000000), wk =   0.0078125
        k(  252) = (   0.9375000   1.3351225   0.0000000), wk =   0.0078125
        k(  253) = (   0.9375000   1.4072913   0.0000000), wk =   0.0078125
        k(  254) = (   0.9375000   1.4794601   0.0000000), wk =   0.0078125
        k(  255) = (   0.9375000   1.5516288   0.0000000), wk =   0.0078125
        k(  256) = (   0.9375000   1.6237976   0.0000000), wk =   0.0078125

                       cryst. coord.
        k(    1) = (   0.0000000   0.0000000   0.0000000), wk =   0.0078125
        k(    2) = (   0.0000000   0.0625000   0.0000000), wk =   0.0078125
        k(    3) = (   0.0000000   0.1250000   0.0000000), wk =   0.0078125
        k(    4) = (   0.0000000   0.1875000   0.0000000), wk =   0.0078125
        k(    5) = (   0.0000000   0.2500000   0.0000000), wk =   0.0078125
        k(    6) = (   0.0000000   0.3125000   0.0000000), wk =   0.0078125
        k(    7) = (   0.0000000   0.3750000   0.0000000), wk =   0.0078125
        k(    8) = (   0.0000000   0.4375000   0.0000000), wk =   0.0078125
        k(    9) = (   0.0000000   0.5000000   0.0000000), wk =   0.0078125
        k(   10) = (   0.0000000   0.5625000   0.0000000), wk =   0.0078125
        k(   11) = (   0.0000000   0.6250000   0.0000000), wk =   0.0078125
        k(   12) = (   0.0000000   0.6875000   0.0000000), wk =   0.0078125
        k(   13) = (   0.0000000   0.7500000   0.0000000), wk =   0.0078125
        k(   14) = (   0.0000000   0.8125000   0.0000000), wk =   0.0078125
        k(   15) = (   0.0000000   0.8750000   0.0000000), wk =   0.0078125
        k(   16) = (   0.0000000   0.9375000   0.0000000), wk =   0.0078125
        k(   17) = (   0.0625000   0.0000000   0.0000000), wk =   0.0078125
        k(   18) = (   0.0625000   0.0625000   0.0000000), wk =   0.0078125
        k(   19) = (   0.0625000   0.1250000   0.0000000), wk =   0.0078125
        k(   20) = (   0.0625000   0.1875000   0.0000000), wk =   0.0078125
        k(   21) = (   0.0625000   0.2500000   0.0000000), wk =   0.0078125
        k(   22) = (   0.0625000   0.3125000   0.0000000), wk =   0.0078125
        k(   23) = (   0.0625000   0.3750000   0.0000000), wk =   0.0078125
        k(   24) = (   0.0625000   0.4375000   0.0000000), wk =   0.0078125
        k(   25) = (   0.0625000   0.5000000   0.0000000), wk =   0.0078125
        k(   26) = (   0.0625000   0.5625000   0.0000000), wk =   0.0078125
        k(   27) = (   0.0625000   0.6250000   0.0000000), wk =   0.0078125
        k(   28) = (   0.0625000   0.6875000   0.0000000), wk =   0.0078125
        k(   29) = (   0.0625000   0.7500000   0.0000000), wk =   0.0078125
        k(   30) = (   0.0625000   0.8125000   0.0000000), wk =   0.0078125
        k(   31) = (   0.0625000   0.8750000   0.0000000), wk =   0.0078125
        k(   32) = (   0.0625000   0.9375000   0.0000000), wk =   0.0078125
        k(   33) = (   0.1250000   0.0000000   0.0000000), wk =   0.0078125
        k(   34) = (   0.1250000   0.0625000   0.0000000), wk =   0.0078125
        k(   35) = (   0.1250000   0.1250000   0.0000000), wk =   0.0078125
        k(   36) = (   0.1250000   0.1875000   0.0000000), wk =   0.0078125
        k(   37) = (   0.1250000   0.2500000   0.0000000), wk =   0.0078125
        k(   38) = (   0.1250000   0.3125000   0.0000000), wk =   0.0078125
        k(   39) = (   0.1250000   0.3750000   0.0000000), wk =   0.0078125
        k(   40) = (   0.1250000   0.4375000   0.0000000), wk =   0.0078125
        k(   41) = (   0.1250000   0.5000000   0.0000000), wk =   0.0078125
        k(   42) = (   0.1250000   0.5625000   0.0000000), wk =   0.0078125
        k(   43) = (   0.1250000   0.6250000   0.0000000), wk =   0.0078125
        k(   44) = (   0.1250000   0.6875000   0.0000000), wk =   0.0078125
        k(   45) = (   0.1250000   0.7500000   0.0000000), wk =   0.0078125
        k(   46) = (   0.1250000   0.8125000   0.0000000), wk =   0.0078125
        k(   47) = (   0.1250000   0.8750000   0.0000000), wk =   0.0078125
        k(   48) = (   0.1250000   0.9375000   0.0000000), wk =   0.0078125
        k(   49) = (   0.1875000   0.0000000   0.0000000), wk =   0.0078125
        k(   50) = (   0.1875000   0.0625000   0.0000000), wk =   0.0078125
        k(   51) = (   0.1875000   0.1250000   0.0000000), wk =   0.0078125
        k(   52) = (   0.1875000   0.1875000   0.0000000), wk =   0.0078125
        k(   53) = (   0.1875000   0.2500000   0.0000000), wk =   0.0078125
        k(   54) = (   0.1875000   0.3125000   0.0000000), wk =   0.0078125
        k(   55) = (   0.1875000   0.3750000   0.0000000), wk =   0.0078125
        k(   56) = (   0.1875000   0.4375000   0.0000000), wk =   0.0078125
        k(   57) = (   0.1875000   0.5000000   0.0000000), wk =   0.0078125
        k(   58) = (   0.1875000   0.5625000   0.0000000), wk =   0.0078125
        k(   59) = (   0.1875000   0.6250000   0.0000000), wk =   0.0078125
        k(   60) = (   0.1875000   0.6875000   0.0000000), wk =   0.0078125
        k(   61) = (   0.1875000   0.7500000   0.0000000), wk =   0.0078125
        k(   62) = (   0.1875000   0.8125000   0.0000000), wk =   0.0078125
        k(   63) = (   0.1875000   0.8750000   0.0000000), wk =   0.0078125
        k(   64) = (   0.1875000   0.9375000   0.0000000), wk =   0.0078125
        k(   65) = (   0.2500000   0.0000000   0.0000000), wk =   0.0078125
        k(   66) = (   0.2500000   0.0625000   0.0000000), wk =   0.0078125
        k(   67) = (   0.2500000   0.1250000   0.0000000), wk =   0.0078125
        k(   68) = (   0.2500000   0.1875000   0.0000000), wk =   0.0078125
        k(   69) = (   0.2500000   0.2500000   0.0000000), wk =   0.0078125
        k(   70) = (   0.2500000   0.3125000   0.0000000), wk =   0.0078125
        k(   71) = (   0.2500000   0.3750000   0.0000000), wk =   0.0078125
        k(   72) = (   0.2500000   0.4375000   0.0000000), wk =   0.0078125
        k(   73) = (   0.2500000   0.5000000   0.0000000), wk =   0.0078125
        k(   74) = (   0.2500000   0.5625000   0.0000000), wk =   0.0078125
        k(   75) = (   0.2500000   0.6250000   0.0000000), wk =   0.0078125
        k(   76) = (   0.2500000   0.6875000   0.0000000), wk =   0.0078125
        k(   77) = (   0.2500000   0.7500000   0.0000000), wk =   0.0078125
        k(   78) = (   0.2500000   0.8125000   0.0000000), wk =   0.0078125
        k(   79) = (   0.2500000   0.8750000   0.0000000), wk =   0.0078125
        k(   80) = (   0.2500000   0.9375000   0.0000000), wk =   0.0078125
        k(   81) = (   0.3125000  -0.0000000   0.0000000), wk =   0.0078125
        k(   82) = (   0.3125000   0.0625000   0.0000000), wk =   0.0078125
        k(   83) = (   0.3125000   0.1250000   0.0000000), wk =   0.0078125
        k(   84) = (   0.3125000   0.1875000   0.0000000), wk =   0.0078125
        k(   85) = (   0.3125000   0.2500000   0.0000000), wk =   0.0078125
        k(   86) = (   0.3125000   0.3125000   0.0000000), wk =   0.0078125
        k(   87) = (   0.3125000   0.3750000   0.0000000), wk =   0.0078125
        k(   88) = (   0.3125000   0.4375000   0.0000000), wk =   0.0078125
        k(   89) = (   0.3125000   0.5000000   0.0000000), wk =   0.0078125
        k(   90) = (   0.3125000   0.5625000   0.0000000), wk =   0.0078125
        k(   91) = (   0.3125000   0.6250000   0.0000000), wk =   0.0078125
        k(   92) = (   0.3125000   0.6875000   0.0000000), wk =   0.0078125
        k(   93) = (   0.3125000   0.7500000   0.0000000), wk =   0.0078125
        k(   94) = (   0.3125000   0.8125000   0.0000000), wk =   0.0078125
        k(   95) = (   0.3125000   0.8750000   0.0000000), wk =   0.0078125
        k(   96) = (   0.3125000   0.9375000   0.0000000), wk =   0.0078125
        k(   97) = (   0.3750000   0.0000000   0.0000000), wk =   0.0078125
        k(   98) = (   0.3750000   0.0625000   0.0000000), wk =   0.0078125
        k(   99) = (   0.3750000   0.1250000   0.0000000), wk =   0.0078125
        k(  100) = (   0.3750000   0.1875000   0.0000000), wk =   0.0078125
        k(  101) = (   0.3750000   0.2500000   0.0000000), wk =   0.0078125
        k(  102) = (   0.3750000   0.3125000   0.0000000), wk =   0.0078125
        k(  103) = (   0.3750000   0.3750000   0.0000000), wk =   0.0078125
        k(  104) = (   0.3750000   0.4375000   0.0000000), wk =   0.0078125
        k(  105) = (   0.3750000   0.5000000   0.0000000), wk =   0.0078125
        k(  106) = (   0.3750000   0.5625000   0.0000000), wk =   0.0078125
        k(  107) = (   0.3750000   0.6250000   0.0000000), wk =   0.0078125
        k(  108) = (   0.3750000   0.6875000   0.0000000), wk =   0.0078125
        k(  109) = (   0.3750000   0.7500000   0.0000000), wk =   0.0078125
        k(  110) = (   0.3750000   0.8125000   0.0000000), wk =   0.0078125
        k(  111) = (   0.3750000   0.8750000   0.0000000), wk =   0.0078125
        k(  112) = (   0.3750000   0.9375000   0.0000000), wk =   0.0078125
        k(  113) = (   0.4375000  -0.0000000   0.0000000), wk =   0.0078125
        k(  114) = (   0.4375000   0.0625000   0.0000000), wk =   0.0078125
        k(  115) = (   0.4375000   0.1250000   0.0000000), wk =   0.0078125
        k(  116) = (   0.4375000   0.1875000   0.0000000), wk =   0.0078125
        k(  117) = (   0.4375000   0.2500000   0.0000000), wk =   0.0078125
        k(  118) = (   0.4375000   0.3125000   0.0000000), wk =   0.0078125
        k(  119) = (   0.4375000   0.3750000   0.0000000), wk =   0.0078125
        k(  120) = (   0.4375000   0.4375000   0.0000000), wk =   0.0078125
        k(  121) = (   0.4375000   0.5000000   0.0000000), wk =   0.0078125
        k(  122) = (   0.4375000   0.5625000   0.0000000), wk =   0.0078125
        k(  123) = (   0.4375000   0.6250000   0.0000000), wk =   0.0078125
        k(  124) = (   0.4375000   0.6875000   0.0000000), wk =   0.0078125
        k(  125) = (   0.4375000   0.7500000   0.0000000), wk =   0.0078125
        k(  126) = (   0.4375000   0.8125000   0.0000000), wk =   0.0078125
        k(  127) = (   0.4375000   0.8750000   0.0000000), wk =   0.0078125
        k(  128) = (   0.4375000   0.9375000   0.0000000), wk =   0.0078125
        k(  129) = (   0.5000000   0.0000000   0.0000000), wk =   0.0078125
        k(  130) = (   0.5000000   0.0625000   0.0000000), wk =   0.0078125
        k(  131) = (   0.5000000   0.1250000   0.0000000), wk =   0.0078125
        k(  132) = (   0.5000000   0.1875000   0.0000000), wk =   0.0078125
        k(  133) = (   0.5000000   0.2500000   0.0000000), wk =   0.0078125
        k(  134) = (   0.5000000   0.3125000   0.0000000), wk =   0.0078125
        k(  135) = (   0.5000000   0.3750000   0.0000000), wk =   0.0078125
        k(  136) = (   0.5000000   0.4375000   0.0000000), wk =   0.0078125
        k(  137) = (   0.5000000   0.5000000   0.0000000), wk =   0.0078125
        k(  138) = (   0.5000000   0.5625000   0.0000000), wk =   0.0078125
        k(  139) = (   0.5000000   0.6250000   0.0000000), wk =   0.0078125
        k(  140) = (   0.5000000   0.6875000   0.0000000), wk =   0.0078125
        k(  141) = (   0.5000000   0.7500000   0.0000000), wk =   0.0078125
        k(  142) = (   0.5000000   0.8125000   0.0000000), wk =   0.0078125
        k(  143) = (   0.5000000   0.8750000   0.0000000), wk =   0.0078125
        k(  144) = (   0.5000000   0.9375000   0.0000000), wk =   0.0078125
        k(  145) = (   0.5625000   0.0000000   0.0000000), wk =   0.0078125
        k(  146) = (   0.5625000   0.0625000   0.0000000), wk =   0.0078125
        k(  147) = (   0.5625000   0.1250000   0.0000000), wk =   0.0078125
        k(  148) = (   0.5625000   0.1875000   0.0000000), wk =   0.0078125
        k(  149) = (   0.5625000   0.2500000   0.0000000), wk =   0.0078125
        k(  150) = (   0.5625000   0.3125000   0.0000000), wk =   0.0078125
        k(  151) = (   0.5625000   0.3750000   0.0000000), wk =   0.0078125
        k(  152) = (   0.5625000   0.4375000   0.0000000), wk =   0.0078125
        k(  153) = (   0.5625000   0.5000000   0.0000000), wk =   0.0078125
        k(  154) = (   0.5625000   0.5625000   0.0000000), wk =   0.0078125
        k(  155) = (   0.5625000   0.6250000   0.0000000), wk =   0.0078125
        k(  156) = (   0.5625000   0.6875000   0.0000000), wk =   0.0078125
        k(  157) = (   0.5625000   0.7500000   0.0000000), wk =   0.0078125
        k(  158) = (   0.5625000   0.8125000   0.0000000), wk =   0.0078125
        k(  159) = (   0.5625000   0.8750000   0.0000000), wk =   0.0078125
        k(  160) = (   0.5625000   0.9375000   0.0000000), wk =   0.0078125
        k(  161) = (   0.6250000  -0.0000000   0.0000000), wk =   0.0078125
        k(  162) = (   0.6250000   0.0625000   0.0000000), wk =   0.0078125
        k(  163) = (   0.6250000   0.1250000   0.0000000), wk =   0.0078125
        k(  164) = (   0.6250000   0.1875000   0.0000000), wk =   0.0078125
        k(  165) = (   0.6250000   0.2500000   0.0000000), wk =   0.0078125
        k(  166) = (   0.6250000   0.3125000   0.0000000), wk =   0.0078125
        k(  167) = (   0.6250000   0.3750000   0.0000000), wk =   0.0078125
        k(  168) = (   0.6250000   0.4375000   0.0000000), wk =   0.0078125
        k(  169) = (   0.6250000   0.5000000   0.0000000), wk =   0.0078125
        k(  170) = (   0.6250000   0.5625000   0.0000000), wk =   0.0078125
        k(  171) = (   0.6250000   0.6250000   0.0000000), wk =   0.0078125
        k(  172) = (   0.6250000   0.6875000   0.0000000), wk =   0.0078125
        k(  173) = (   0.6250000   0.7500000   0.0000000), wk =   0.0078125
        k(  174) = (   0.6250000   0.8125000   0.0000000), wk =   0.0078125
        k(  175) = (   0.6250000   0.8750000   0.0000000), wk =   0.0078125
        k(  176) = (   0.6250000   0.9375000   0.0000000), wk =   0.0078125
        k(  177) = (   0.6875000   0.0000000   0.0000000), wk =   0.0078125
        k(  178) = (   0.6875000   0.0625000   0.0000000), wk =   0.0078125
        k(  179) = (   0.6875000   0.1250000   0.0000000), wk =   0.0078125
        k(  180) = (   0.6875000   0.1875000   0.0000000), wk =   0.0078125
        k(  181) = (   0.6875000   0.2500000   0.0000000), wk =   0.0078125
        k(  182) = (   0.6875000   0.3125000   0.0000000), wk =   0.0078125
        k(  183) = (   0.6875000   0.3750000   0.0000000), wk =   0.0078125
        k(  184) = (   0.6875000   0.4375000   0.0000000), wk =   0.0078125
        k(  185) = (   0.6875000   0.5000000   0.0000000), wk =   0.0078125
        k(  186) = (   0.6875000   0.5625000   0.0000000), wk =   0.0078125
        k(  187) = (   0.6875000   0.6250000   0.0000000), wk =   0.0078125
        k(  188) = (   0.6875000   0.6875000   0.0000000), wk =   0.0078125
        k(  189) = (   0.6875000   0.7500000   0.0000000), wk =   0.0078125
        k(  190) = (   0.6875000   0.8125000   0.0000000), wk =   0.0078125
        k(  191) = (   0.6875000   0.8750000   0.0000000), wk =   0.0078125
        k(  192) = (   0.6875000   0.9375000   0.0000000), wk =   0.0078125
        k(  193) = (   0.7500000   0.0000000   0.0000000), wk =   0.0078125
        k(  194) = (   0.7500000   0.0625000   0.0000000), wk =   0.0078125
        k(  195) = (   0.7500000   0.1250000   0.0000000), wk =   0.0078125
        k(  196) = (   0.7500000   0.1875000   0.0000000), wk =   0.0078125
        k(  197) = (   0.7500000   0.2500000   0.0000000), wk =   0.0078125
        k(  198) = (   0.7500000   0.3125000   0.0000000), wk =   0.0078125
        k(  199) = (   0.7500000   0.3750000   0.0000000), wk =   0.0078125
        k(  200) = (   0.7500000   0.4375000   0.0000000), wk =   0.0078125
        k(  201) = (   0.7500000   0.5000000   0.0000000), wk =   0.0078125
        k(  202) = (   0.7500000   0.5625000   0.0000000), wk =   0.0078125
        k(  203) = (   0.7500000   0.6250000   0.0000000), wk =   0.0078125
        k(  204) = (   0.7500000   0.6875000   0.0000000), wk =   0.0078125
        k(  205) = (   0.7500000   0.7500000   0.0000000), wk =   0.0078125
        k(  206) = (   0.7500000   0.8125000   0.0000000), wk =   0.0078125
        k(  207) = (   0.7500000   0.8750000   0.0000000), wk =   0.0078125
        k(  208) = (   0.7500000   0.9375000   0.0000000), wk =   0.0078125
        k(  209) = (   0.8125000   0.0000000   0.0000000), wk =   0.0078125
        k(  210) = (   0.8125000   0.0625000   0.0000000), wk =   0.0078125
        k(  211) = (   0.8125000   0.1250000   0.0000000), wk =   0.0078125
        k(  212) = (   0.8125000   0.1875000   0.0000000), wk =   0.0078125
        k(  213) = (   0.8125000   0.2500000   0.0000000), wk =   0.0078125
        k(  214) = (   0.8125000   0.3125000   0.0000000), wk =   0.0078125
        k(  215) = (   0.8125000   0.3750000   0.0000000), wk =   0.0078125
        k(  216) = (   0.8125000   0.4375000   0.0000000), wk =   0.0078125
        k(  217) = (   0.8125000   0.5000000   0.0000000), wk =   0.0078125
        k(  218) = (   0.8125000   0.5625000   0.0000000), wk =   0.0078125
        k(  219) = (   0.8125000   0.6250000   0.0000000), wk =   0.0078125
        k(  220) = (   0.8125000   0.6875000   0.0000000), wk =   0.0078125
        k(  221) = (   0.8125000   0.7500000   0.0000000), wk =   0.0078125
        k(  222) = (   0.8125000   0.8125000   0.0000000), wk =   0.0078125
        k(  223) = (   0.8125000   0.8750000   0.0000000), wk =   0.0078125
        k(  224) = (   0.8125000   0.9375000   0.0000000), wk =   0.0078125
        k(  225) = (   0.8750000  -0.0000000   0.0000000), wk =   0.0078125
        k(  226) = (   0.8750000   0.0625000   0.0000000), wk =   0.0078125
        k(  227) = (   0.8750000   0.1250000   0.0000000), wk =   0.0078125
        k(  228) = (   0.8750000   0.1875000   0.0000000), wk =   0.0078125
        k(  229) = (   0.8750000   0.2500000   0.0000000), wk =   0.0078125
        k(  230) = (   0.8750000   0.3125000   0.0000000), wk =   0.0078125
        k(  231) = (   0.8750000   0.3750000   0.0000000), wk =   0.0078125
        k(  232) = (   0.8750000   0.4375000   0.0000000), wk =   0.0078125
        k(  233) = (   0.8750000   0.5000000   0.0000000), wk =   0.0078125
        k(  234) = (   0.8750000   0.5625000   0.0000000), wk =   0.0078125
        k(  235) = (   0.8750000   0.6250000   0.0000000), wk =   0.0078125
        k(  236) = (   0.8750000   0.6875000   0.0000000), wk =   0.0078125
        k(  237) = (   0.8750000   0.7500000   0.0000000), wk =   0.0078125
        k(  238) = (   0.8750000   0.8125000   0.0000000), wk =   0.0078125
        k(  239) = (   0.8750000   0.8750000   0.0000000), wk =   0.0078125
        k(  240) = (   0.8750000   0.9375000   0.0000000), wk =   0.0078125
        k(  241) = (   0.9375000   0.0000000   0.0000000), wk =   0.0078125
        k(  242) = (   0.9375000   0.0625000   0.0000000), wk =   0.0078125
        k(  243) = (   0.9375000   0.1250000   0.0000000), wk =   0.0078125
        k(  244) = (   0.9375000   0.1875000   0.0000000), wk =   0.0078125
        k(  245) = (   0.9375000   0.2500000   0.0000000), wk =   0.0078125
        k(  246) = (   0.9375000   0.3125000   0.0000000), wk =   0.0078125
        k(  247) = (   0.9375000   0.3750000   0.0000000), wk =   0.0078125
        k(  248) = (   0.9375000   0.4375000   0.0000000), wk =   0.0078125
        k(  249) = (   0.9375000   0.5000000   0.0000000), wk =   0.0078125
        k(  250) = (   0.9375000   0.5625000   0.0000000), wk =   0.0078125
        k(  251) = (   0.9375000   0.6250000   0.0000000), wk =   0.0078125
        k(  252) = (   0.9375000   0.6875000   0.0000000), wk =   0.0078125
        k(  253) = (   0.9375000   0.7500000   0.0000000), wk =   0.0078125
        k(  254) = (   0.9375000   0.8125000   0.0000000), wk =   0.0078125
        k(  255) = (   0.9375000   0.8750000   0.0000000), wk =   0.0078125
        k(  256) = (   0.9375000   0.9375000   0.0000000), wk =   0.0078125

     Dense  grid:    46375 G-vectors     FFT dimensions: (  40,  40,  75)

     Smooth grid:    16329 G-vectors     FFT dimensions: (  27,  27,  54)

     Dynamical RAM for                 wfc:       0.01 MB

     Dynamical RAM for     wfc (w. buffer):       0.01 MB

     Dynamical RAM for           str. fact:       0.04 MB

     Dynamical RAM for           local pot:       0.00 MB

     Dynamical RAM for          nlocal pot:       0.04 MB

     Dynamical RAM for                qrad:       2.87 MB

     Dynamical RAM for          rho,v,vnew:       0.13 MB

     Dynamical RAM for           G-vectors:       0.07 MB

     Dynamical RAM for          h,s,v(r/c):       0.05 MB

     Dynamical RAM for          <psi|beta>:       0.01 MB

     Dynamical RAM for                 psi:       0.03 MB

     Dynamical RAM for                hpsi:       0.03 MB

     Dynamical RAM for                spsi:       0.03 MB

     Dynamical RAM for      wfcinit/wfcrot:       0.04 MB

     Dynamical RAM for           addusdens:       3.30 MB

     Estimated static dynamical RAM per process >       3.33 MB

     Estimated max dynamical RAM per process >       6.63 MB

     Estimated total dynamical RAM >     265.32 MB

     The potential is recalculated from file :
     ./out/1T-NbSe2.save/charge-density

     Starting wfcs are   18 randomized atomic wfcs
     Checking if some PAW data can be deallocated... 
       PAW data deallocated on   26 nodes for type:  1

     Band Structure Calculation
     Davidson diagonalization with overlap

     Computing kpt #:     1  of   256
     total cpu time spent up to now is        2.0 secs

     Computing kpt #:     2  of   256
     total cpu time spent up to now is        2.1 secs

     Computing kpt #:     3  of   256
     total cpu time spent up to now is        2.3 secs

     Computing kpt #:     4  of   256
     total cpu time spent up to now is        2.5 secs

     Computing kpt #:     5  of   256
     total cpu time spent up to now is        2.7 secs

     Computing kpt #:     6  of   256
     total cpu time spent up to now is        2.9 secs

     Computing kpt #:     7  of   256
     total cpu time spent up to now is        3.1 secs

     Computing kpt #:     8  of   256
     total cpu time spent up to now is        3.3 secs

     Computing kpt #:     9  of   256
     total cpu time spent up to now is        3.5 secs

     Computing kpt #:    10  of   256
     total cpu time spent up to now is        3.7 secs

     Computing kpt #:    11  of   256
     total cpu time spent up to now is        3.9 secs

     Computing kpt #:    12  of   256
     total cpu time spent up to now is        4.1 secs

     Computing kpt #:    13  of   256
     total cpu time spent up to now is        4.3 secs

     Computing kpt #:    14  of   256
     total cpu time spent up to now is        4.5 secs

     Computing kpt #:    15  of   256
     total cpu time spent up to now is        4.7 secs

     Computing kpt #:    16  of   256
     total cpu time spent up to now is        4.9 secs

     Computing kpt #:    17  of   256
     total cpu time spent up to now is        5.1 secs

     Computing kpt #:    18  of   256
     total cpu time spent up to now is        5.3 secs

     Computing kpt #:    19  of   256
     total cpu time spent up to now is        5.5 secs

     Computing kpt #:    20  of   256
     total cpu time spent up to now is        5.7 secs

     Computing kpt #:    21  of   256
     total cpu time spent up to now is        5.9 secs

     Computing kpt #:    22  of   256
     total cpu time spent up to now is        6.2 secs

     Computing kpt #:    23  of   256
     total cpu time spent up to now is        6.4 secs

     Computing kpt #:    24  of   256
     total cpu time spent up to now is        6.6 secs

     Computing kpt #:    25  of   256
     total cpu time spent up to now is        6.8 secs

     Computing kpt #:    26  of   256
     total cpu time spent up to now is        7.0 secs

     Computing kpt #:    27  of   256
     total cpu time spent up to now is        7.2 secs

     Computing kpt #:    28  of   256
     total cpu time spent up to now is        7.5 secs

     Computing kpt #:    29  of   256
     total cpu time spent up to now is        7.7 secs

     Computing kpt #:    30  of   256
     total cpu time spent up to now is        7.9 secs

     Computing kpt #:    31  of   256
     total cpu time spent up to now is        8.1 secs

     Computing kpt #:    32  of   256
     total cpu time spent up to now is        8.3 secs

     Computing kpt #:    33  of   256
     total cpu time spent up to now is        8.5 secs

     Computing kpt #:    34  of   256
     total cpu time spent up to now is        8.7 secs

     Computing kpt #:    35  of   256
     total cpu time spent up to now is        8.9 secs

     Computing kpt #:    36  of   256
     total cpu time spent up to now is        9.1 secs

     Computing kpt #:    37  of   256
     total cpu time spent up to now is        9.4 secs

     Computing kpt #:    38  of   256
     total cpu time spent up to now is        9.6 secs

     Computing kpt #:    39  of   256
     total cpu time spent up to now is        9.8 secs

     Computing kpt #:    40  of   256
     total cpu time spent up to now is       10.0 secs

     Computing kpt #:    41  of   256
     total cpu time spent up to now is       10.2 secs

     Computing kpt #:    42  of   256
     total cpu time spent up to now is       10.4 secs

     Computing kpt #:    43  of   256
     total cpu time spent up to now is       10.6 secs

     Computing kpt #:    44  of   256
     total cpu time spent up to now is       10.8 secs

     Computing kpt #:    45  of   256
     total cpu time spent up to now is       11.0 secs

     Computing kpt #:    46  of   256
     total cpu time spent up to now is       11.3 secs

     Computing kpt #:    47  of   256
     total cpu time spent up to now is       11.5 secs

     Computing kpt #:    48  of   256
     total cpu time spent up to now is       11.7 secs

     Computing kpt #:    49  of   256
     total cpu time spent up to now is       11.9 secs

     Computing kpt #:    50  of   256
     total cpu time spent up to now is       12.1 secs

     Computing kpt #:    51  of   256
     total cpu time spent up to now is       12.3 secs

     Computing kpt #:    52  of   256
     total cpu time spent up to now is       12.5 secs

     Computing kpt #:    53  of   256
     total cpu time spent up to now is       12.7 secs

     Computing kpt #:    54  of   256
     total cpu time spent up to now is       12.9 secs

     Computing kpt #:    55  of   256
     total cpu time spent up to now is       13.1 secs

     Computing kpt #:    56  of   256
     total cpu time spent up to now is       13.3 secs

     Computing kpt #:    57  of   256
     total cpu time spent up to now is       13.5 secs

     Computing kpt #:    58  of   256
     total cpu time spent up to now is       13.8 secs

     Computing kpt #:    59  of   256
     total cpu time spent up to now is       14.0 secs

     Computing kpt #:    60  of   256
     total cpu time spent up to now is       14.2 secs

     Computing kpt #:    61  of   256
     total cpu time spent up to now is       14.4 secs

     Computing kpt #:    62  of   256
     total cpu time spent up to now is       14.6 secs

     Computing kpt #:    63  of   256
     total cpu time spent up to now is       14.8 secs

     Computing kpt #:    64  of   256
     total cpu time spent up to now is       15.0 secs

     Computing kpt #:    65  of   256
     total cpu time spent up to now is       15.2 secs

     Computing kpt #:    66  of   256
     total cpu time spent up to now is       15.5 secs

     Computing kpt #:    67  of   256
     total cpu time spent up to now is       15.7 secs

     Computing kpt #:    68  of   256
     total cpu time spent up to now is       15.9 secs

     Computing kpt #:    69  of   256
     total cpu time spent up to now is       16.1 secs

     Computing kpt #:    70  of   256
     total cpu time spent up to now is       16.3 secs

     Computing kpt #:    71  of   256
     total cpu time spent up to now is       16.5 secs

     Computing kpt #:    72  of   256
     total cpu time spent up to now is       16.7 secs

     Computing kpt #:    73  of   256
     total cpu time spent up to now is       16.9 secs

     Computing kpt #:    74  of   256
     total cpu time spent up to now is       17.1 secs

     Computing kpt #:    75  of   256
     total cpu time spent up to now is       17.4 secs

     Computing kpt #:    76  of   256
     total cpu time spent up to now is       17.6 secs

     Computing kpt #:    77  of   256
     total cpu time spent up to now is       17.8 secs

     Computing kpt #:    78  of   256
     total cpu time spent up to now is       18.0 secs

     Computing kpt #:    79  of   256
     total cpu time spent up to now is       18.2 secs

     Computing kpt #:    80  of   256
     total cpu time spent up to now is       18.4 secs

     Computing kpt #:    81  of   256
     total cpu time spent up to now is       18.6 secs

     Computing kpt #:    82  of   256
     total cpu time spent up to now is       18.9 secs

     Computing kpt #:    83  of   256
     total cpu time spent up to now is       19.1 secs

     Computing kpt #:    84  of   256
     total cpu time spent up to now is       19.3 secs

     Computing kpt #:    85  of   256
     total cpu time spent up to now is       19.5 secs

     Computing kpt #:    86  of   256
     total cpu time spent up to now is       19.7 secs

     Computing kpt #:    87  of   256
     total cpu time spent up to now is       19.9 secs

     Computing kpt #:    88  of   256
     total cpu time spent up to now is       20.1 secs

     Computing kpt #:    89  of   256
     total cpu time spent up to now is       20.3 secs

     Computing kpt #:    90  of   256
     total cpu time spent up to now is       20.5 secs

     Computing kpt #:    91  of   256
     total cpu time spent up to now is       20.8 secs

     Computing kpt #:    92  of   256
     total cpu time spent up to now is       21.0 secs

     Computing kpt #:    93  of   256
     total cpu time spent up to now is       21.2 secs

     Computing kpt #:    94  of   256
     total cpu time spent up to now is       21.4 secs

     Computing kpt #:    95  of   256
     total cpu time spent up to now is       21.6 secs

     Computing kpt #:    96  of   256
     total cpu time spent up to now is       21.8 secs

     Computing kpt #:    97  of   256
     total cpu time spent up to now is       22.0 secs

     Computing kpt #:    98  of   256
     total cpu time spent up to now is       22.3 secs

     Computing kpt #:    99  of   256
     total cpu time spent up to now is       22.5 secs

     Computing kpt #:   100  of   256
     total cpu time spent up to now is       22.7 secs

     Computing kpt #:   101  of   256
     total cpu time spent up to now is       22.9 secs

     Computing kpt #:   102  of   256
     total cpu time spent up to now is       23.1 secs

     Computing kpt #:   103  of   256
     total cpu time spent up to now is       23.3 secs

     Computing kpt #:   104  of   256
     total cpu time spent up to now is       23.5 secs

     Computing kpt #:   105  of   256
     total cpu time spent up to now is       23.7 secs

     Computing kpt #:   106  of   256
     total cpu time spent up to now is       23.9 secs

     Computing kpt #:   107  of   256
     total cpu time spent up to now is       24.1 secs

     Computing kpt #:   108  of   256
     total cpu time spent up to now is       24.3 secs

     Computing kpt #:   109  of   256
     total cpu time spent up to now is       24.5 secs

     Computing kpt #:   110  of   256
     total cpu time spent up to now is       24.8 secs

     Computing kpt #:   111  of   256
     total cpu time spent up to now is       25.0 secs

     Computing kpt #:   112  of   256
     total cpu time spent up to now is       25.2 secs

     Computing kpt #:   113  of   256
     total cpu time spent up to now is       25.4 secs

     Computing kpt #:   114  of   256
     total cpu time spent up to now is       25.6 secs

     Computing kpt #:   115  of   256
     total cpu time spent up to now is       25.8 secs

     Computing kpt #:   116  of   256
     total cpu time spent up to now is       26.0 secs

     Computing kpt #:   117  of   256
     total cpu time spent up to now is       26.2 secs

     Computing kpt #:   118  of   256
     total cpu time spent up to now is       26.4 secs

     Computing kpt #:   119  of   256
     total cpu time spent up to now is       26.6 secs

     Computing kpt #:   120  of   256
     total cpu time spent up to now is       26.8 secs

     Computing kpt #:   121  of   256
     total cpu time spent up to now is       27.0 secs

     Computing kpt #:   122  of   256
     total cpu time spent up to now is       27.2 secs

     Computing kpt #:   123  of   256
     total cpu time spent up to now is       27.4 secs

     Computing kpt #:   124  of   256
     total cpu time spent up to now is       27.6 secs

     Computing kpt #:   125  of   256
     total cpu time spent up to now is       27.8 secs

     Computing kpt #:   126  of   256
     total cpu time spent up to now is       28.1 secs

     Computing kpt #:   127  of   256
     total cpu time spent up to now is       28.3 secs

     Computing kpt #:   128  of   256
     total cpu time spent up to now is       28.5 secs

     Computing kpt #:   129  of   256
     total cpu time spent up to now is       28.7 secs

     Computing kpt #:   130  of   256
     total cpu time spent up to now is       28.9 secs

     Computing kpt #:   131  of   256
     total cpu time spent up to now is       29.1 secs

     Computing kpt #:   132  of   256
     total cpu time spent up to now is       29.3 secs

     Computing kpt #:   133  of   256
     total cpu time spent up to now is       29.5 secs

     Computing kpt #:   134  of   256
     total cpu time spent up to now is       29.7 secs

     Computing kpt #:   135  of   256
     total cpu time spent up to now is       29.9 secs

     Computing kpt #:   136  of   256
     total cpu time spent up to now is       30.1 secs

     Computing kpt #:   137  of   256
     total cpu time spent up to now is       30.3 secs

     Computing kpt #:   138  of   256
     total cpu time spent up to now is       30.5 secs

     Computing kpt #:   139  of   256
     total cpu time spent up to now is       30.7 secs

     Computing kpt #:   140  of   256
     total cpu time spent up to now is       30.9 secs

     Computing kpt #:   141  of   256
     total cpu time spent up to now is       31.1 secs

     Computing kpt #:   142  of   256
     total cpu time spent up to now is       31.3 secs

     Computing kpt #:   143  of   256
     total cpu time spent up to now is       31.5 secs

     Computing kpt #:   144  of   256
     total cpu time spent up to now is       31.7 secs

     Computing kpt #:   145  of   256
     total cpu time spent up to now is       32.0 secs

     Computing kpt #:   146  of   256
     total cpu time spent up to now is       32.2 secs

     Computing kpt #:   147  of   256
     total cpu time spent up to now is       32.4 secs

     Computing kpt #:   148  of   256
     total cpu time spent up to now is       32.6 secs

     Computing kpt #:   149  of   256
     total cpu time spent up to now is       32.8 secs

     Computing kpt #:   150  of   256
     total cpu time spent up to now is       33.1 secs

     Computing kpt #:   151  of   256
     total cpu time spent up to now is       33.3 secs

     Computing kpt #:   152  of   256
     total cpu time spent up to now is       33.5 secs

     Computing kpt #:   153  of   256
     total cpu time spent up to now is       33.7 secs

     Computing kpt #:   154  of   256
     total cpu time spent up to now is       33.9 secs

     Computing kpt #:   155  of   256
     total cpu time spent up to now is       34.1 secs

     Computing kpt #:   156  of   256
     total cpu time spent up to now is       34.3 secs

     Computing kpt #:   157  of   256
     total cpu time spent up to now is       34.5 secs

     Computing kpt #:   158  of   256
     total cpu time spent up to now is       34.7 secs

     Computing kpt #:   159  of   256
     total cpu time spent up to now is       34.9 secs

     Computing kpt #:   160  of   256
     total cpu time spent up to now is       35.1 secs

     Computing kpt #:   161  of   256
     total cpu time spent up to now is       35.3 secs

     Computing kpt #:   162  of   256
     total cpu time spent up to now is       35.5 secs

     Computing kpt #:   163  of   256
     total cpu time spent up to now is       35.8 secs

     Computing kpt #:   164  of   256
     total cpu time spent up to now is       36.0 secs

     Computing kpt #:   165  of   256
     total cpu time spent up to now is       36.2 secs

     Computing kpt #:   166  of   256
     total cpu time spent up to now is       36.4 secs

     Computing kpt #:   167  of   256
     total cpu time spent up to now is       36.6 secs

     Computing kpt #:   168  of   256
     total cpu time spent up to now is       36.8 secs

     Computing kpt #:   169  of   256
     total cpu time spent up to now is       37.0 secs

     Computing kpt #:   170  of   256
     total cpu time spent up to now is       37.3 secs

     Computing kpt #:   171  of   256
     total cpu time spent up to now is       37.5 secs

     Computing kpt #:   172  of   256
     total cpu time spent up to now is       37.7 secs

     Computing kpt #:   173  of   256
     total cpu time spent up to now is       37.9 secs

     Computing kpt #:   174  of   256
     total cpu time spent up to now is       38.1 secs

     Computing kpt #:   175  of   256
     total cpu time spent up to now is       38.3 secs

     Computing kpt #:   176  of   256
     total cpu time spent up to now is       38.5 secs

     Computing kpt #:   177  of   256
     total cpu time spent up to now is       38.7 secs

     Computing kpt #:   178  of   256
     total cpu time spent up to now is       38.9 secs

     Computing kpt #:   179  of   256
     total cpu time spent up to now is       39.1 secs

     Computing kpt #:   180  of   256
     total cpu time spent up to now is       39.4 secs

     Computing kpt #:   181  of   256
     total cpu time spent up to now is       39.6 secs

     Computing kpt #:   182  of   256
     total cpu time spent up to now is       39.8 secs

     Computing kpt #:   183  of   256
     total cpu time spent up to now is       40.0 secs

     Computing kpt #:   184  of   256
     total cpu time spent up to now is       40.2 secs

     Computing kpt #:   185  of   256
     total cpu time spent up to now is       40.4 secs

     Computing kpt #:   186  of   256
     total cpu time spent up to now is       40.6 secs

     Computing kpt #:   187  of   256
     total cpu time spent up to now is       40.8 secs

     Computing kpt #:   188  of   256
     total cpu time spent up to now is       41.1 secs

     Computing kpt #:   189  of   256
     total cpu time spent up to now is       41.3 secs

     Computing kpt #:   190  of   256
     total cpu time spent up to now is       41.5 secs

     Computing kpt #:   191  of   256
     total cpu time spent up to now is       41.7 secs

     Computing kpt #:   192  of   256
     total cpu time spent up to now is       41.9 secs

     Computing kpt #:   193  of   256
     total cpu time spent up to now is       42.1 secs

     Computing kpt #:   194  of   256
     total cpu time spent up to now is       42.3 secs

     Computing kpt #:   195  of   256
     total cpu time spent up to now is       42.5 secs

     Computing kpt #:   196  of   256
     total cpu time spent up to now is       42.8 secs

     Computing kpt #:   197  of   256
     total cpu time spent up to now is       43.0 secs

     Computing kpt #:   198  of   256
     total cpu time spent up to now is       43.2 secs

     Computing kpt #:   199  of   256
     total cpu time spent up to now is       43.4 secs

     Computing kpt #:   200  of   256
     total cpu time spent up to now is       43.6 secs

     Computing kpt #:   201  of   256
     total cpu time spent up to now is       43.8 secs

     Computing kpt #:   202  of   256
     total cpu time spent up to now is       44.0 secs

     Computing kpt #:   203  of   256
     total cpu time spent up to now is       44.2 secs

     Computing kpt #:   204  of   256
     total cpu time spent up to now is       44.4 secs

     Computing kpt #:   205  of   256
     total cpu time spent up to now is       44.6 secs

     Computing kpt #:   206  of   256
     total cpu time spent up to now is       44.8 secs

     Computing kpt #:   207  of   256
     total cpu time spent up to now is       45.1 secs

     Computing kpt #:   208  of   256
     total cpu time spent up to now is       45.3 secs

     Computing kpt #:   209  of   256
     total cpu time spent up to now is       45.5 secs

     Computing kpt #:   210  of   256
     total cpu time spent up to now is       45.7 secs

     Computing kpt #:   211  of   256
     total cpu time spent up to now is       45.9 secs

     Computing kpt #:   212  of   256
     total cpu time spent up to now is       46.1 secs

     Computing kpt #:   213  of   256
     total cpu time spent up to now is       46.3 secs

     Computing kpt #:   214  of   256
     total cpu time spent up to now is       46.5 secs

     Computing kpt #:   215  of   256
     total cpu time spent up to now is       46.8 secs

     Computing kpt #:   216  of   256
     total cpu time spent up to now is       47.0 secs

     Computing kpt #:   217  of   256
     total cpu time spent up to now is       47.2 secs

     Computing kpt #:   218  of   256
     total cpu time spent up to now is       47.4 secs

     Computing kpt #:   219  of   256
     total cpu time spent up to now is       47.6 secs

     Computing kpt #:   220  of   256
     total cpu time spent up to now is       47.8 secs

     Computing kpt #:   221  of   256
     total cpu time spent up to now is       48.0 secs

     Computing kpt #:   222  of   256
     total cpu time spent up to now is       48.2 secs

     Computing kpt #:   223  of   256
     total cpu time spent up to now is       48.4 secs

     Computing kpt #:   224  of   256
     total cpu time spent up to now is       48.7 secs

     Computing kpt #:   225  of   256
     total cpu time spent up to now is       48.9 secs

     Computing kpt #:   226  of   256
     total cpu time spent up to now is       49.1 secs

     Computing kpt #:   227  of   256
     total cpu time spent up to now is       49.3 secs

     Computing kpt #:   228  of   256
     total cpu time spent up to now is       49.5 secs

     Computing kpt #:   229  of   256
     total cpu time spent up to now is       49.7 secs

     Computing kpt #:   230  of   256
     total cpu time spent up to now is       49.9 secs

     Computing kpt #:   231  of   256
     total cpu time spent up to now is       50.1 secs

     Computing kpt #:   232  of   256
     total cpu time spent up to now is       50.4 secs

     Computing kpt #:   233  of   256
     total cpu time spent up to now is       50.6 secs

     Computing kpt #:   234  of   256
     total cpu time spent up to now is       50.8 secs

     Computing kpt #:   235  of   256
     total cpu time spent up to now is       51.0 secs

     Computing kpt #:   236  of   256
     total cpu time spent up to now is       51.2 secs

     Computing kpt #:   237  of   256
     total cpu time spent up to now is       51.4 secs

     Computing kpt #:   238  of   256
     total cpu time spent up to now is       51.6 secs

     Computing kpt #:   239  of   256
     total cpu time spent up to now is       51.8 secs

     Computing kpt #:   240  of   256
     total cpu time spent up to now is       52.1 secs

     Computing kpt #:   241  of   256
     total cpu time spent up to now is       52.2 secs

     Computing kpt #:   242  of   256
     total cpu time spent up to now is       52.4 secs

     Computing kpt #:   243  of   256
     total cpu time spent up to now is       52.6 secs

     Computing kpt #:   244  of   256
     total cpu time spent up to now is       52.8 secs

     Computing kpt #:   245  of   256
     total cpu time spent up to now is       53.1 secs

     Computing kpt #:   246  of   256
     total cpu time spent up to now is       53.3 secs

     Computing kpt #:   247  of   256
     total cpu time spent up to now is       53.5 secs

     Computing kpt #:   248  of   256
     total cpu time spent up to now is       53.7 secs

     Computing kpt #:   249  of   256
     total cpu time spent up to now is       53.9 secs

     Computing kpt #:   250  of   256
     total cpu time spent up to now is       54.1 secs

     Computing kpt #:   251  of   256
     total cpu time spent up to now is       54.4 secs

     Computing kpt #:   252  of   256
     total cpu time spent up to now is       54.6 secs

     Computing kpt #:   253  of   256
     total cpu time spent up to now is       54.8 secs

     Computing kpt #:   254  of   256
     total cpu time spent up to now is       55.0 secs

     Computing kpt #:   255  of   256
     total cpu time spent up to now is       55.2 secs

     Computing kpt #:   256  of   256
     total cpu time spent up to now is       55.4 secs

     ethr =  4.00E-11,  avg # of iterations = 46.4

     total cpu time spent up to now is       55.5 secs

     End of band structure calculation

          k = 0.0000 0.0000 0.0000 (  2065 PWs)   bands (ev):

   -47.0350 -23.0412 -23.0412 -23.0398  -5.5377  -4.4827   2.9023   5.7920
     5.7920   7.3733   8.3534   8.6764   8.6764   8.7812   8.7812  12.1197
    12.1197

     occupation numbers 
     1.0000   1.0000   1.0000   1.0000   1.0000   1.0000   1.0000   1.0000
     1.0000   1.0000   0.9401   0.0358   0.0358   0.0019   0.0019   0.0000
     0.0000

          k = 0.0000 0.0722 0.0000 (  2073 PWs)   bands (ev):

   -47.0342 -23.0503 -23.0433 -23.0379  -5.4917  -4.4694   2.9688   5.6308
     5.8159   7.4546   8.0270   8.2662   8.4172   9.0668   9.1765  11.9215
    12.0991

     occupation numbers 
     1.0000   1.0000   1.0000   1.0000   1.0000   1.0000   1.0000   1.0000
     1.0000   1.0000   1.0000   0.9931   0.8138   0.0000   0.0000   0.0000
     0.0000

          k = 0.0000 0.1443 0.0000 (  2073 PWs)   bands (ev):

   -47.0321 -23.0758 -23.0491 -23.0323  -5.3577  -4.4310   3.1628   5.2848
     5.8750   7.0967   7.5973   7.8482   8.3774   9.2405   9.5473  11.6431
    12.0723

     occupation numbers 
     1.0000   1.0000   1.0000   1.0000   1.0000   1.0000   1.0000   1.0000
     1.0000   1.0000   1.0000   1.0000   0.9042   0.0000   0.0000   0.0000
     0.0000

          k = 0.0000 0.2165 0.0000 (  2053 PWs)   bands (ev):

   -47.0290 -23.1138 -23.0577 -23.0237  -5.1481  -4.3711   3.4648   4.9266
     5.9300   6.1200   7.4825   7.5229   8.2581   9.4141   9.8047  11.6382
    12.1027

     occupation numbers 
     1.0000   1.0000   1.0000   1.0000   1.0000   1.0000   1.0000   1.0000
     1.0000   1.0000   1.0000   1.0000   0.9945   0.0000   0.0000   0.0000
     0.0000

          k = 0.0000 0.2887 0.0000 (  2045 PWs)   bands (ev):

   -47.0253 -23.1583 -23.0678 -23.0137  -4.8859  -4.2942   3.8223   4.6513
     5.1729   5.9273   7.1212   7.3365   8.0810   9.6755   9.9599  11.9347
    12.2075

     occupation numbers 
     1.0000   1.0000   1.0000   1.0000   1.0000   1.0000   1.0000   1.0000
     1.0000   1.0000   1.0000   1.0000   1.0000   0.0000   0.0000   0.0000
     0.0000

          k = 0.0000 0.3608 0.0000 (  2044 PWs)   bands (ev):

   -47.0215 -23.2024 -23.0779 -23.0037  -4.6110  -4.2013   3.9870   4.4034
     4.6380   5.8500   6.6127   7.2845   7.9273  10.0245  10.0720  12.3346
    12.3456

     occupation numbers 
     1.0000   1.0000   1.0000   1.0000   1.0000   1.0000   1.0000   1.0000
     1.0000   1.0000   1.0000   1.0000   1.0000   0.0000   0.0000   0.0000
     0.0000

          k = 0.0000 0.4330 0.0000 (  2046 PWs)   bands (ev):

   -47.0184 -23.2396 -23.0865 -22.9951  -4.3900  -4.0809   3.4916   4.3010
     4.8448   5.7433   6.1464   7.3010   7.8142  10.1838  10.4135  12.4676
    12.5794

     occupation numbers 
     1.0000   1.0000   1.0000   1.0000   1.0000   1.0000   1.0000   1.0000
     1.0000   1.0000   1.0000   1.0000   1.0000   0.0000   0.0000   0.0000
     0.0000

          k = 0.0000 0.5052 0.0000 (  2046 PWs)   bands (ev):

   -47.0163 -23.2643 -23.0922 -22.9893  -4.2758  -3.9471   3.0537   4.3641
     4.9306   5.6603   5.9232   7.3262   7.7420  10.2836  10.7534  12.5465
    12.5473

     occupation numbers 
     1.0000   1.0000   1.0000   1.0000   1.0000   1.0000   1.0000   1.0000
     1.0000   1.0000   1.0000   1.0000   1.0000   0.0000   0.0000   0.0000
     0.0000

          k = 0.0000 0.5774 0.0000 (  2038 PWs)   bands (ev):

   -47.0155 -23.2728 -23.0943 -22.9873  -4.2442  -3.8869   2.8958   4.4355
     4.8653   5.6298   5.9089   7.3361   7.7163  10.3253  10.8985  12.4795
    12.5734

     occupation numbers 
     1.0000   1.0000   1.0000   1.0000   1.0000   1.0000   1.0000   1.0000
     1.0000   1.0000   1.0000   1.0000   1.0000   0.0000   0.0000   0.0000
     0.0000

          k = 0.0000 0.6495 0.0000 (  2046 PWs)   bands (ev):

   -47.0163 -23.2643 -23.0922 -22.9893  -4.2758  -3.9471   3.0537   4.3641
     4.9306   5.6603   5.9232   7.3262   7.7420  10.2836  10.7534  12.5465
    12.5473

     occupation numbers 
     1.0000   1.0000   1.0000   1.0000   1.0000   1.0000   1.0000   1.0000
     1.0000   1.0000   1.0000   1.0000   1.0000   0.0000   0.0000   0.0000
     0.0000

          k = 0.0000 0.7217 0.0000 (  2046 PWs)   bands (ev):

   -47.0184 -23.2396 -23.0865 -22.9951  -4.3900  -4.0809   3.4916   4.3010
     4.8448   5.7433   6.1464   7.3010   7.8142  10.1838  10.4135  12.4676
    12.5794

     occupation numbers 
     1.0000   1.0000   1.0000   1.0000   1.0000   1.0000   1.0000   1.0000
     1.0000   1.0000   1.0000   1.0000   1.0000   0.0000   0.0000   0.0000
     0.0000

          k = 0.0000 0.7939 0.0000 (  2044 PWs)   bands (ev):

   -47.0215 -23.2024 -23.0779 -23.0037  -4.6110  -4.2013   3.9870   4.4034
     4.6380   5.8500   6.6127   7.2845   7.9273  10.0245  10.0720  12.3346
    12.3456

     occupation numbers 
     1.0000   1.0000   1.0000   1.0000   1.0000   1.0000   1.0000   1.0000
     1.0000   1.0000   1.0000   1.0000   1.0000   0.0000   0.0000   0.0000
     0.0000

          k = 0.0000 0.8660 0.0000 (  2045 PWs)   bands (ev):

   -47.0253 -23.1583 -23.0678 -23.0137  -4.8859  -4.2942   3.8223   4.6513
     5.1729   5.9273   7.1212   7.3365   8.0810   9.6755   9.9599  11.9347
    12.2075

     occupation numbers 
     1.0000   1.0000   1.0000   1.0000   1.0000   1.0000   1.0000   1.0000
[...]
     0.0000

          k = 0.8125 0.9743 0.0000 (  2049 PWs)   bands (ev):

   -47.0178 -23.2199 -23.1159 -22.9934  -4.2939  -4.1169   3.9511   4.3323
     4.8054   5.4098   5.7086   6.5792   8.9628   9.7020  10.6741  11.2334
    12.9541

     occupation numbers 
     1.0000   1.0000   1.0000   1.0000   1.0000   1.0000   1.0000   1.0000
     1.0000   1.0000   1.0000   1.0000   0.0000   0.0000   0.0000   0.0000
     0.0000

          k = 0.8125 1.0464 0.0000 (  2043 PWs)   bands (ev):

   -47.0155 -23.2376 -23.1305 -22.9874  -4.1456  -4.0048   3.5549   4.2717
     5.1401   5.2169   5.5620   6.2574   9.0659   9.9185  10.7196  11.3628
    12.7344

     occupation numbers 
     1.0000   1.0000   1.0000   1.0000   1.0000   1.0000   1.0000   1.0000
     1.0000   1.0000   1.0000   1.0000   0.0000   0.0000   0.0000   0.0000
     0.0000

          k = 0.8125 1.1186 0.0000 (  2031 PWs)   bands (ev):

   -47.0143 -23.2467 -23.1387 -22.9842  -4.0972  -3.9041   3.3324   4.2451
     5.1260   5.3546   5.4612   6.0893   9.0675  10.2047  10.6124  11.5441
    12.4153

     occupation numbers 
     1.0000   1.0000   1.0000   1.0000   1.0000   1.0000   1.0000   1.0000
     1.0000   1.0000   1.0000   1.0000   0.0000   0.0000   0.0000   0.0000
     0.0000

          k = 0.8125 1.1908 0.0000 (  2031 PWs)   bands (ev):

   -47.0143 -23.2467 -23.1387 -22.9842  -4.0972  -3.9041   3.3324   4.2451
     5.1260   5.3546   5.4612   6.0893   9.0675  10.2047  10.6124  11.5441
    12.4153

     occupation numbers 
     1.0000   1.0000   1.0000   1.0000   1.0000   1.0000   1.0000   1.0000
     1.0000   1.0000   1.0000   1.0000   0.0000   0.0000   0.0000   0.0000
     0.0000

          k = 0.8125 1.2630 0.0000 (  2043 PWs)   bands (ev):

   -47.0155 -23.2376 -23.1305 -22.9874  -4.1456  -4.0048   3.5549   4.2717
     5.1401   5.2169   5.5620   6.2574   9.0659   9.9185  10.7196  11.3628
    12.7344

     occupation numbers 
     1.0000   1.0000   1.0000   1.0000   1.0000   1.0000   1.0000   1.0000
     1.0000   1.0000   1.0000   1.0000   0.0000   0.0000   0.0000   0.0000
     0.0000

          k = 0.8125 1.3351 0.0000 (  2049 PWs)   bands (ev):

   -47.0178 -23.2199 -23.1159 -22.9934  -4.2939  -4.1169   3.9511   4.3323
     4.8054   5.4098   5.7086   6.5792   8.9628   9.7020  10.6741  11.2334
    12.9541

     occupation numbers 
     1.0000   1.0000   1.0000   1.0000   1.0000   1.0000   1.0000   1.0000
     1.0000   1.0000   1.0000   1.0000   0.0000   0.0000   0.0000   0.0000
     0.0000

          k = 0.8125 1.4073 0.0000 (  2037 PWs)   bands (ev):

   -47.0207 -23.1955 -23.0978 -23.0012  -4.5311  -4.1960   4.3936   4.4357
     4.4493   5.7731   5.8906   6.9450   8.7515   9.6077  10.4493  11.2767
    12.8607

     occupation numbers 
     1.0000   1.0000   1.0000   1.0000   1.0000   1.0000   1.0000   1.0000
     1.0000   1.0000   1.0000   1.0000   0.0049   0.0000   0.0000   0.0000
     0.0000

          k = 0.8125 1.4795 0.0000 (  2045 PWs)   bands (ev):

   -47.0238 -23.1672 -23.0799 -23.0098  -4.7782  -4.2663   4.0095   4.5762
     4.9824   5.9682   6.3729   7.2478   8.5386   9.5701  10.1335  11.4990
    12.5135

     occupation numbers 
     1.0000   1.0000   1.0000   1.0000   1.0000   1.0000   1.0000   1.0000
     1.0000   1.0000   1.0000   1.0000   0.3557   0.0000   0.0000   0.0000
     0.0000

          k = 0.8125 1.5516 0.0000 (  2054 PWs)   bands (ev):

   -47.0268 -23.1386 -23.0658 -23.0177  -4.9925  -4.3267   3.6896   4.7491
     5.5339   6.0075   7.0007   7.4522   8.3382   9.5365   9.8917  11.7204
    12.1523

     occupation numbers 
     1.0000   1.0000   1.0000   1.0000   1.0000   1.0000   1.0000   1.0000
     1.0000   1.0000   1.0000   1.0000   0.9567   0.0000   0.0000   0.0000
     0.0000

          k = 0.8750 0.5052 0.0000 (  2073 PWs)   bands (ev):

   -47.0321 -23.0758 -23.0491 -23.0323  -5.3577  -4.4310   3.1628   5.2848
     5.8750   7.0967   7.5973   7.8482   8.3774   9.2405   9.5473  11.6431
    12.0723

     occupation numbers 
     1.0000   1.0000   1.0000   1.0000   1.0000   1.0000   1.0000   1.0000
     1.0000   1.0000   1.0000   1.0000   0.9042   0.0000   0.0000   0.0000
     0.0000

          k = 0.8750 0.5774 0.0000 (  2071 PWs)   bands (ev):

   -47.0328 -23.0673 -23.0475 -23.0340  -5.4017  -4.4436   3.0992   5.3866
     5.8515   7.4603   7.4841   7.9013   8.4336   9.2876   9.3718  11.7595
    12.0093

     occupation numbers 
     1.0000   1.0000   1.0000   1.0000   1.0000   1.0000   1.0000   1.0000
     1.0000   1.0000   1.0000   1.0000   0.7649   0.0000   0.0000   0.0000
     0.0000

          k = 0.8750 0.6495 0.0000 (  2073 PWs)   bands (ev):

   -47.0321 -23.0758 -23.0491 -23.0323  -5.3577  -4.4310   3.1628   5.2848
     5.8750   7.0967   7.5973   7.8482   8.3774   9.2405   9.5473  11.6431
    12.0723

     occupation numbers 
     1.0000   1.0000   1.0000   1.0000   1.0000   1.0000   1.0000   1.0000
     1.0000   1.0000   1.0000   1.0000   0.9042   0.0000   0.0000   0.0000
     0.0000

          k = 0.8750 0.7217 0.0000 (  2063 PWs)   bands (ev):

   -47.0302 -23.0983 -23.0554 -23.0269  -5.2296  -4.3945   3.3492   5.0536
     5.8729   6.6139   7.2612   7.7121   8.4181   9.4165   9.6296  11.6981
    11.9548

     occupation numbers 
     1.0000   1.0000   1.0000   1.0000   1.0000   1.0000   1.0000   1.0000
     1.0000   1.0000   1.0000   1.0000   0.8112   0.0000   0.0000   0.0000
     0.0000

          k = 0.8750 0.7939 0.0000 (  2049 PWs)   bands (ev):

   -47.0273 -23.1303 -23.0663 -23.0191  -5.0291  -4.3379   3.6441   4.7940
     5.6061   6.2525   6.6806   7.5687   8.4865   9.5269   9.8033  11.6522
    12.0957

     occupation numbers 
     1.0000   1.0000   1.0000   1.0000   1.0000   1.0000   1.0000   1.0000
     1.0000   1.0000   1.0000   1.0000   0.5681   0.0000   0.0000   0.0000
     0.0000

          k = 0.8750 0.8660 0.0000 (  2045 PWs)   bands (ev):

   -47.0238 -23.1672 -23.0799 -23.0098  -4.7782  -4.2663   4.0095   4.5762
     4.9824   5.9682   6.3729   7.2478   8.5386   9.5701  10.1335  11.4990
    12.5135

     occupation numbers 
     1.0000   1.0000   1.0000   1.0000   1.0000   1.0000   1.0000   1.0000
     1.0000   1.0000   1.0000   1.0000   0.3557   0.0000   0.0000   0.0000
     0.0000

          k = 0.8750 0.9382 0.0000 (  2036 PWs)   bands (ev):

   -47.0204 -23.2036 -23.0936 -23.0005  -4.5138  -4.1822   4.1592   4.3755
     4.6031   5.6446   6.2791   6.8112   8.6019   9.6900  10.4377  11.5031
    12.8303

     occupation numbers 
     1.0000   1.0000   1.0000   1.0000   1.0000   1.0000   1.0000   1.0000
     1.0000   1.0000   1.0000   1.0000   0.1521   0.0000   0.0000   0.0000
     0.0000

          k = 0.8750 1.0104 0.0000 (  2037 PWs)   bands (ev):

   -47.0175 -23.2342 -23.1053 -22.9926  -4.3012  -4.0732   3.6258   4.3093
     4.9177   5.4079   6.2094   6.3999   8.6412   9.8961  10.6554  11.6282
    12.8616

     occupation numbers 
     1.0000   1.0000   1.0000   1.0000   1.0000   1.0000   1.0000   1.0000
     1.0000   1.0000   1.0000   1.0000   0.0755   0.0000   0.0000   0.0000
     0.0000

          k = 0.8750 1.0825 0.0000 (  2039 PWs)   bands (ev):

   -47.0155 -23.2545 -23.1132 -22.9874  -4.1977  -3.9448   3.2244   4.3211
     5.0398   5.3709   6.1362   6.1631   8.6369  10.1477  10.7484  11.7993
    12.6177

     occupation numbers 
     1.0000   1.0000   1.0000   1.0000   1.0000   1.0000   1.0000   1.0000
     1.0000   1.0000   1.0000   1.0000   0.0821   0.0000   0.0000   0.0000
     0.0000

          k = 0.8750 1.1547 0.0000 (  2020 PWs)   bands (ev):

   -47.0148 -23.2614 -23.1159 -22.9855  -4.1705  -3.8866   3.0811   4.3434
     4.9986   5.4166   6.0904   6.1228   8.6263  10.2834  10.7496  11.9118
    12.4357

     occupation numbers 
     1.0000   1.0000   1.0000   1.0000   1.0000   1.0000   1.0000   1.0000
     1.0000   1.0000   1.0000   1.0000   0.1000   0.0000   0.0000   0.0000
     0.0000

          k = 0.8750 1.2269 0.0000 (  2039 PWs)   bands (ev):

   -47.0155 -23.2545 -23.1132 -22.9874  -4.1977  -3.9448   3.2244   4.3211
     5.0398   5.3709   6.1362   6.1631   8.6369  10.1477  10.7484  11.7993
    12.6177

     occupation numbers 
     1.0000   1.0000   1.0000   1.0000   1.0000   1.0000   1.0000   1.0000
     1.0000   1.0000   1.0000   1.0000   0.0821   0.0000   0.0000   0.0000
     0.0000

          k = 0.8750 1.2990 0.0000 (  2037 PWs)   bands (ev):

   -47.0175 -23.2342 -23.1053 -22.9926  -4.3012  -4.0732   3.6258   4.3093
     4.9177   5.4079   6.2094   6.3999   8.6412   9.8961  10.6554  11.6282
    12.8616

     occupation numbers 
     1.0000   1.0000   1.0000   1.0000   1.0000   1.0000   1.0000   1.0000
     1.0000   1.0000   1.0000   1.0000   0.0755   0.0000   0.0000   0.0000
     0.0000

          k = 0.8750 1.3712 0.0000 (  2036 PWs)   bands (ev):

   -47.0204 -23.2036 -23.0936 -23.0005  -4.5138  -4.1822   4.1592   4.3755
     4.6031   5.6446   6.2791   6.8112   8.6019   9.6900  10.4377  11.5031
    12.8303

     occupation numbers 
     1.0000   1.0000   1.0000   1.0000   1.0000   1.0000   1.0000   1.0000
     1.0000   1.0000   1.0000   1.0000   0.1521   0.0000   0.0000   0.0000
     0.0000

          k = 0.8750 1.4434 0.0000 (  2045 PWs)   bands (ev):

   -47.0238 -23.1672 -23.0799 -23.0098  -4.7782  -4.2663   4.0095   4.5762
     4.9824   5.9682   6.3729   7.2478   8.5386   9.5701  10.1335  11.4990
    12.5135

     occupation numbers 
     1.0000   1.0000   1.0000   1.0000   1.0000   1.0000   1.0000   1.0000
     1.0000   1.0000   1.0000   1.0000   0.3557   0.0000   0.0000   0.0000
     0.0000

          k = 0.8750 1.5155 0.0000 (  2049 PWs)   bands (ev):

   -47.0273 -23.1303 -23.0663 -23.0191  -5.0291  -4.3379   3.6441   4.7940
     5.6061   6.2525   6.6806   7.5687   8.4865   9.5269   9.8033  11.6522
    12.0957

     occupation numbers 
     1.0000   1.0000   1.0000   1.0000   1.0000   1.0000   1.0000   1.0000
     1.0000   1.0000   1.0000   1.0000   0.5681   0.0000   0.0000   0.0000
     0.0000

          k = 0.8750 1.5877 0.0000 (  2063 PWs)   bands (ev):

   -47.0302 -23.0983 -23.0554 -23.0269  -5.2296  -4.3945   3.3492   5.0536
     5.8729   6.6139   7.2612   7.7121   8.4181   9.4165   9.6296  11.6981
    11.9548

     occupation numbers 
     1.0000   1.0000   1.0000   1.0000   1.0000   1.0000   1.0000   1.0000
     1.0000   1.0000   1.0000   1.0000   0.8112   0.0000   0.0000   0.0000
     0.0000

          k = 0.9375 0.5413 0.0000 (  2073 PWs)   bands (ev):

   -47.0342 -23.0503 -23.0433 -23.0379  -5.4917  -4.4694   2.9688   5.6308
     5.8159   7.4546   8.0270   8.2662   8.4172   9.0668   9.1765  11.9215
    12.0991

     occupation numbers 
     1.0000   1.0000   1.0000   1.0000   1.0000   1.0000   1.0000   1.0000
     1.0000   1.0000   1.0000   0.9931   0.8138   0.0000   0.0000   0.0000
     0.0000

          k = 0.9375 0.6134 0.0000 (  2073 PWs)   bands (ev):

   -47.0342 -23.0503 -23.0433 -23.0379  -5.4917  -4.4694   2.9688   5.6308
     5.8159   7.4546   8.0270   8.2662   8.4172   9.0668   9.1765  11.9215
    12.0991

     occupation numbers 
     1.0000   1.0000   1.0000   1.0000   1.0000   1.0000   1.0000   1.0000
     1.0000   1.0000   1.0000   0.9931   0.8138   0.0000   0.0000   0.0000
     0.0000

          k = 0.9375 0.6856 0.0000 (  2071 PWs)   bands (ev):

   -47.0328 -23.0673 -23.0475 -23.0340  -5.4017  -4.4436   3.0992   5.3866
     5.8515   7.4603   7.4841   7.9013   8.4336   9.2876   9.3718  11.7595
    12.0093

     occupation numbers 
     1.0000   1.0000   1.0000   1.0000   1.0000   1.0000   1.0000   1.0000
     1.0000   1.0000   1.0000   1.0000   0.7649   0.0000   0.0000   0.0000
     0.0000

          k = 0.9375 0.7578 0.0000 (  2063 PWs)   bands (ev):

   -47.0302 -23.0983 -23.0554 -23.0269  -5.2296  -4.3945   3.3492   5.0536
     5.8729   6.6139   7.2612   7.7121   8.4181   9.4165   9.6296  11.6981
    11.9548

     occupation numbers 
     1.0000   1.0000   1.0000   1.0000   1.0000   1.0000   1.0000   1.0000
     1.0000   1.0000   1.0000   1.0000   0.8112   0.0000   0.0000   0.0000
     0.0000

          k = 0.9375 0.8299 0.0000 (  2054 PWs)   bands (ev):

   -47.0268 -23.1386 -23.0658 -23.0177  -4.9925  -4.3267   3.6896   4.7491
     5.5339   6.0075   7.0007   7.4522   8.3382   9.5365   9.8917  11.7204
    12.1523

     occupation numbers 
     1.0000   1.0000   1.0000   1.0000   1.0000   1.0000   1.0000   1.0000
     1.0000   1.0000   1.0000   1.0000   0.9567   0.0000   0.0000   0.0000
     0.0000

          k = 0.9375 0.9021 0.0000 (  2053 PWs)   bands (ev):

   -47.0230 -23.1819 -23.0769 -23.0077  -4.7202  -4.2440   4.0220   4.5488
     4.7498   5.8538   6.8122   7.0575   8.2552   9.7284  10.1326  11.8456
    12.4811

     occupation numbers 
     1.0000   1.0000   1.0000   1.0000   1.0000   1.0000   1.0000   1.0000
     1.0000   1.0000   1.0000   1.0000   0.9950   0.0000   0.0000   0.0000
     0.0000

          k = 0.9375 0.9743 0.0000 (  2041 PWs)   bands (ev):

   -47.0196 -23.2215 -23.0872 -22.9983  -4.4646  -4.1421   3.8098   4.3161
     4.7331   5.6853   6.4519   6.8831   8.2017   9.9490  10.3902  12.0172
    12.7354

     occupation numbers 
     1.0000   1.0000   1.0000   1.0000   1.0000   1.0000   1.0000   1.0000
     1.0000   1.0000   1.0000   1.0000   0.9991   0.0000   0.0000   0.0000
     0.0000

          k = 0.9375 1.0464 0.0000 (  2044 PWs)   bands (ev):

   -47.0170 -23.2517 -23.0951 -22.9912  -4.2982  -4.0096   3.2832   4.3213
     4.9486   5.5498   6.1213   6.8447   8.1662  10.1549  10.6540  12.1694
    12.7179

     occupation numbers 
     1.0000   1.0000   1.0000   1.0000   1.0000   1.0000   1.0000   1.0000
     1.0000   1.0000   1.0000   1.0000   0.9998   0.0000   0.0000   0.0000
     0.0000

          k = 0.9375 1.1186 0.0000 (  2039 PWs)   bands (ev):

   -47.0155 -23.2679 -23.0994 -22.9873  -4.2322  -3.9023   2.9820   4.3944
     4.9225   5.5297   6.0069   6.8291   8.1434  10.2896  10.8353  12.2951
    12.5235

     occupation numbers 
     1.0000   1.0000   1.0000   1.0000   1.0000   1.0000   1.0000   1.0000
     1.0000   1.0000   1.0000   1.0000   0.9999   0.0000   0.0000   0.0000
     0.0000

          k = 0.9375 1.1908 0.0000 (  2039 PWs)   bands (ev):

   -47.0155 -23.2679 -23.0994 -22.9873  -4.2322  -3.9023   2.9820   4.3944
     4.9225   5.5297   6.0069   6.8291   8.1434  10.2896  10.8353  12.2951
    12.5235

     occupation numbers 
     1.0000   1.0000   1.0000   1.0000   1.0000   1.0000   1.0000   1.0000
     1.0000   1.0000   1.0000   1.0000   0.9999   0.0000   0.0000   0.0000
     0.0000

          k = 0.9375 1.2630 0.0000 (  2044 PWs)   bands (ev):

   -47.0170 -23.2517 -23.0951 -22.9912  -4.2982  -4.0096   3.2832   4.3213
     4.9486   5.5498   6.1213   6.8447   8.1662  10.1549  10.6540  12.1694
    12.7179

     occupation numbers 
     1.0000   1.0000   1.0000   1.0000   1.0000   1.0000   1.0000   1.0000
     1.0000   1.0000   1.0000   1.0000   0.9998   0.0000   0.0000   0.0000
     0.0000

          k = 0.9375 1.3351 0.0000 (  2041 PWs)   bands (ev):

   -47.0196 -23.2215 -23.0872 -22.9983  -4.4646  -4.1421   3.8098   4.3161
     4.7331   5.6853   6.4519   6.8831   8.2017   9.9490  10.3902  12.0172
    12.7354

     occupation numbers 
     1.0000   1.0000   1.0000   1.0000   1.0000   1.0000   1.0000   1.0000
     1.0000   1.0000   1.0000   1.0000   0.9991   0.0000   0.0000   0.0000
     0.0000

          k = 0.9375 1.4073 0.0000 (  2053 PWs)   bands (ev):

   -47.0230 -23.1819 -23.0769 -23.0077  -4.7202  -4.2440   4.0220   4.5488
     4.7498   5.8538   6.8122   7.0575   8.2552   9.7284  10.1326  11.8456
    12.4811

     occupation numbers 
     1.0000   1.0000   1.0000   1.0000   1.0000   1.0000   1.0000   1.0000
     1.0000   1.0000   1.0000   1.0000   0.9950   0.0000   0.0000   0.0000
     0.0000

          k = 0.9375 1.4795 0.0000 (  2054 PWs)   bands (ev):

   -47.0268 -23.1386 -23.0658 -23.0177  -4.9925  -4.3267   3.6896   4.7491
     5.5339   6.0075   7.0007   7.4522   8.3382   9.5365   9.8917  11.7204
    12.1523

     occupation numbers 
     1.0000   1.0000   1.0000   1.0000   1.0000   1.0000   1.0000   1.0000
     1.0000   1.0000   1.0000   1.0000   0.9567   0.0000   0.0000   0.0000
     0.0000

          k = 0.9375 1.5516 0.0000 (  2063 PWs)   bands (ev):

   -47.0302 -23.0983 -23.0554 -23.0269  -5.2296  -4.3945   3.3492   5.0536
     5.8729   6.6139   7.2612   7.7121   8.4181   9.4165   9.6296  11.6981
    11.9548

     occupation numbers 
     1.0000   1.0000   1.0000   1.0000   1.0000   1.0000   1.0000   1.0000
     1.0000   1.0000   1.0000   1.0000   0.8112   0.0000   0.0000   0.0000
     0.0000

          k = 0.9375 1.6238 0.0000 (  2071 PWs)   bands (ev):

   -47.0328 -23.0673 -23.0475 -23.0340  -5.4017  -4.4436   3.0992   5.3866
     5.8515   7.4603   7.4841   7.9013   8.4336   9.2876   9.3718  11.7595
    12.0093

     occupation numbers 
     1.0000   1.0000   1.0000   1.0000   1.0000   1.0000   1.0000   1.0000
     1.0000   1.0000   1.0000   1.0000   0.7649   0.0000   0.0000   0.0000
     0.0000

     the Fermi energy is     8.5030 ev
     (compare with:     8.4599 eV, computed in scf)

     Writing output data file ./out/1T-NbSe2.save/
 
     init_run     :      0.18s CPU      0.23s WALL (       1 calls)
     electrons    :     47.86s CPU     53.67s WALL (       1 calls)

     Called by init_run:
     wfcinit      :      0.00s CPU      0.00s WALL (       1 calls)
     wfcinit:atom :      0.01s CPU      0.01s WALL (     256 calls)
     wfcinit:wfcr :      0.97s CPU      1.14s WALL (     256 calls)
     potinit      :      0.07s CPU      0.09s WALL (       1 calls)
     hinit0       :      0.06s CPU      0.09s WALL (       1 calls)

     Called by electrons:
     c_bands      :     47.86s CPU     53.66s WALL (       1 calls)
     v_of_rho     :      0.00s CPU      0.01s WALL (       1 calls)
     v_h          :      0.00s CPU      0.00s WALL (       1 calls)
     v_xc         :      0.00s CPU      0.00s WALL (       1 calls)
     newd         :      0.02s CPU      0.03s WALL (       1 calls)
     PAW_pot      :      0.07s CPU      0.07s WALL (       1 calls)

     Called by c_bands:
     init_us_2    :      0.04s CPU      0.03s WALL (     256 calls)
     cegterg      :     46.72s CPU     52.32s WALL (     759 calls)

     Called by sum_band:

     Called by *egterg:
     cdiaghg      :      5.54s CPU      6.18s WALL (   12124 calls)
     cegterg:over :      1.52s CPU      1.93s WALL (   11868 calls)
     cegterg:upda :      0.29s CPU      0.28s WALL (   11868 calls)
     cegterg:last :      0.55s CPU      0.65s WALL (   11419 calls)
     h_psi        :     38.34s CPU     42.78s WALL (   12883 calls)
     s_psi        :      0.47s CPU      0.53s WALL (   12883 calls)
     g_psi        :      0.07s CPU      0.08s WALL (   11868 calls)

     Called by h_psi:
     h_psi:calbec :      1.07s CPU      1.23s WALL (   12883 calls)
     vloc_psi     :     36.58s CPU     40.85s WALL (   12883 calls)
     add_vuspsi   :      0.59s CPU      0.58s WALL (   12883 calls)

     General routines
     calbec       :      1.04s CPU      1.19s WALL (   12883 calls)
     fft          :      0.00s CPU      0.02s WALL (      13 calls)
     ffts         :      0.00s CPU      0.00s WALL (       1 calls)
     fftw         :     35.22s CPU     39.30s WALL (  394490 calls)
     interpolate  :      0.00s CPU      0.00s WALL (       1 calls)
     davcio       :      0.01s CPU      0.03s WALL (     512 calls)
 
     Parallel routines
     fft_scatt_xy :      1.51s CPU      1.59s WALL (  394504 calls)
     fft_scatt_yz :     17.87s CPU     19.75s WALL (  394504 calls)

     PAW routines
     PAW_pot      :      0.07s CPU      0.07s WALL (       1 calls)
 
     PWSCF        :     50.69s CPU     57.36s WALL

 
   This run was terminated on:  16:25:14  20May2022            

=------------------------------------------------------------------------------=
   JOB DONE.
=------------------------------------------------------------------------------=
